phonopy:
  version: "2.33.3"
  calculator: qe
  frequency_unit_conversion_factor: 15.633302
  symmetry_tolerance: 1.00000e-05
  configuration:
    cell_filename: "/home/pablo/OneDrive/Documents/work/PhD/_git/Thoth/examples/scf.in"
    create_displacements: ".true."
    dim: "2 2 2"
    calculator: "qe"

physical_unit:
  atomic_mass: "AMU"
  length: "au"

space_group:
  type: "Cmcm"
  number: 63
  Hall_symbol: "-C 2c 2"

supercell_matrix:
- [   2,   0,   0 ]
- [   0,   2,   0 ]
- [   0,   0,   2 ]

primitive_cell:
  lattice:
  - [    11.985055808496563,   -11.388452694284309,     0.000000000000000 ] # a
  - [    11.985055808496563,    11.388452694284309,     0.000000000000000 ] # b
  - [     0.000000000000000,     0.000000000000000,    22.870381132349216 ] # c
  points:
  - symbol: Pb # 1
    coordinates: [  0.000000000000000,  0.000000000000000,  0.000000000000000 ]
    mass: 207.200000
  - symbol: Pb # 2
    coordinates: [  0.000000000000000,  0.000000000000000,  0.500000000000000 ]
    mass: 207.200000
  - symbol: Pb # 3
    coordinates: [  0.500000000000000,  0.500000000000000,  0.000000000000000 ]
    mass: 207.200000
  - symbol: Pb # 4
    coordinates: [  0.500000000000000,  0.500000000000000,  0.500000000000000 ]
    mass: 207.200000
  - symbol: I # 5
    coordinates: [  0.250450138800000,  0.250450138800000,  0.000000000000000 ]
    mass: 126.904470
  - symbol: I # 6
    coordinates: [  0.250450138800000,  0.250450138800000,  0.500000000000000 ]
    mass: 126.904470
  - symbol: I # 7
    coordinates: [  0.749549861200000,  0.749549861200000,  0.500000000000000 ]
    mass: 126.904470
  - symbol: I # 8
    coordinates: [  0.749549861200000,  0.749549861200000,  0.000000000000000 ]
    mass: 126.904470
  - symbol: I # 9
    coordinates: [  0.054534251500000,  0.945465748500000,  0.750000000000000 ]
    mass: 126.904470
  - symbol: I # 10
    coordinates: [  0.945465748500000,  0.054534251500000,  0.250000000000000 ]
    mass: 126.904470
  - symbol: I # 11
    coordinates: [  0.431621469400000,  0.568378530600000,  0.750000000000000 ]
    mass: 126.904470
  - symbol: I # 12
    coordinates: [  0.568378530600000,  0.431621469400000,  0.250000000000000 ]
    mass: 126.904470
  - symbol: I # 13
    coordinates: [  0.750314257800000,  0.249685742200000,  0.925855209400000 ]
    mass: 126.904470
  - symbol: I # 14
    coordinates: [  0.750314257800000,  0.249685742200000,  0.574144790600000 ]
    mass: 126.904470
  - symbol: I # 15
    coordinates: [  0.249685742200000,  0.750314257800000,  0.425855209400000 ]
    mass: 126.904470
  - symbol: I # 16
    coordinates: [  0.249685742200000,  0.750314257800000,  0.074144790600000 ]
    mass: 126.904470
  - symbol: N # 17
    coordinates: [  0.367725057200000,  0.052609618900000,  0.250000000000000 ]
    mass: 14.006700
  - symbol: N # 18
    coordinates: [  0.052609618900000,  0.367725057200000,  0.750000000000000 ]
    mass: 14.006700
  - symbol: N # 19
    coordinates: [  0.632274942800000,  0.947390381100000,  0.750000000000000 ]
    mass: 14.006700
  - symbol: N # 20
    coordinates: [  0.947390381100000,  0.632274942800000,  0.250000000000000 ]
    mass: 14.006700
  - symbol: C # 21
    coordinates: [  0.528990418700000,  0.994365744600000,  0.250000000000000 ]
    mass: 12.010700
  - symbol: C # 22
    coordinates: [  0.994365744600000,  0.528990418700000,  0.750000000000000 ]
    mass: 12.010700
  - symbol: C # 23
    coordinates: [  0.471009581300000,  0.005634255400000,  0.750000000000000 ]
    mass: 12.010700
  - symbol: C # 24
    coordinates: [  0.005634255400000,  0.471009581300000,  0.250000000000000 ]
    mass: 12.010700
  - symbol: H # 25
    coordinates: [  0.658570840800000,  0.880733338200000,  0.819720108600000 ]
    mass: 1.007940
  - symbol: H # 26
    coordinates: [  0.658570840800000,  0.880733338200000,  0.680279891400000 ]
    mass: 1.007940
  - symbol: H # 27
    coordinates: [  0.880733338200000,  0.658570840800000,  0.319720108600000 ]
    mass: 1.007940
  - symbol: H # 28
    coordinates: [  0.880733338200000,  0.658570840800000,  0.180279891400000 ]
    mass: 1.007940
  - symbol: H # 29
    coordinates: [  0.341429159200000,  0.119266661800000,  0.319720108600000 ]
    mass: 1.007940
  - symbol: H # 30
    coordinates: [  0.119266661800000,  0.341429159200000,  0.680279891400000 ]
    mass: 1.007940
  - symbol: H # 31
    coordinates: [  0.341429159200000,  0.119266661800000,  0.180279891400000 ]
    mass: 1.007940
  - symbol: H # 32
    coordinates: [  0.119266661800000,  0.341429159200000,  0.819720108600000 ]
    mass: 1.007940
  - symbol: H # 33
    coordinates: [  0.550124183600000,  0.924318688600000,  0.324351918700000 ]
    mass: 1.007940
  - symbol: H # 34
    coordinates: [  0.550124183600000,  0.924318688600000,  0.175648081300000 ]
    mass: 1.007940
  - symbol: H # 35
    coordinates: [  0.924318688600000,  0.550124183600000,  0.824351918700000 ]
    mass: 1.007940
  - symbol: H # 36
    coordinates: [  0.924318688600000,  0.550124183600000,  0.675648081300000 ]
    mass: 1.007940
  - symbol: H # 37
    coordinates: [  0.449875816400000,  0.075681311400000,  0.824351918700000 ]
    mass: 1.007940
  - symbol: H # 38
    coordinates: [  0.075681311400000,  0.449875816400000,  0.175648081300000 ]
    mass: 1.007940
  - symbol: H # 39
    coordinates: [  0.449875816400000,  0.075681311400000,  0.675648081300000 ]
    mass: 1.007940
  - symbol: H # 40
    coordinates: [  0.075681311400000,  0.449875816400000,  0.324351918700000 ]
    mass: 1.007940
  - symbol: H # 41
    coordinates: [  0.602920207200000,  0.092040281700000,  0.250000000000000 ]
    mass: 1.007940
  - symbol: H # 42
    coordinates: [  0.092040281700000,  0.602920207200000,  0.750000000000000 ]
    mass: 1.007940
  - symbol: H # 43
    coordinates: [  0.397079792800000,  0.907959718300000,  0.750000000000000 ]
    mass: 1.007940
  - symbol: H # 44
    coordinates: [  0.907959718300000,  0.397079792800000,  0.250000000000000 ]
    mass: 1.007940
  - symbol: H # 45
    coordinates: [  0.037402867700000,  0.705768789000000,  0.250000000000000 ]
    mass: 1.007940
  - symbol: H # 46
    coordinates: [  0.705768789000000,  0.037402867700000,  0.750000000000000 ]
    mass: 1.007940
  - symbol: H # 47
    coordinates: [  0.962597132300000,  0.294231211000000,  0.750000000000000 ]
    mass: 1.007940
  - symbol: H # 48
    coordinates: [  0.294231211000000,  0.962597132300000,  0.250000000000000 ]
    mass: 1.007940
  reciprocal_lattice: # without 2pi
  - [     0.041718620921693,    -0.043904120552825,     0.000000000000000 ] # a*
  - [     0.041718620921693,     0.043904120552825,     0.000000000000000 ] # b*
  - [     0.000000000000000,     0.000000000000000,     0.043724675781006 ] # c*

unit_cell:
  lattice:
  - [    11.985055808496563,   -11.388452694284309,     0.000000000000000 ] # a
  - [    11.985055808496563,    11.388452694284309,     0.000000000000000 ] # b
  - [     0.000000000000000,     0.000000000000000,    22.870381132349216 ] # c
  points:
  - symbol: Pb # 1
    coordinates: [  0.000000000000000,  0.000000000000000,  0.000000000000000 ]
    mass: 207.200000
    reduced_to: 1
  - symbol: Pb # 2
    coordinates: [ -0.000000000000000, -0.000000000000000,  0.500000000000000 ]
    mass: 207.200000
    reduced_to: 2
  - symbol: Pb # 3
    coordinates: [  0.500000000000000,  0.500000000000000,  0.000000000000000 ]
    mass: 207.200000
    reduced_to: 3
  - symbol: Pb # 4
    coordinates: [  0.500000000000000,  0.500000000000000,  0.500000000000000 ]
    mass: 207.200000
    reduced_to: 4
  - symbol: I # 5
    coordinates: [  0.250450138800000,  0.250450138800000, -0.000000000000000 ]
    mass: 126.904470
    reduced_to: 5
  - symbol: I # 6
    coordinates: [  0.250450138800000,  0.250450138800000,  0.500000000000000 ]
    mass: 126.904470
    reduced_to: 6
  - symbol: I # 7
    coordinates: [  0.749549861200000,  0.749549861200000,  0.500000000000000 ]
    mass: 126.904470
    reduced_to: 7
  - symbol: I # 8
    coordinates: [  0.749549861200000,  0.749549861200000,  0.000000000000000 ]
    mass: 126.904470
    reduced_to: 8
  - symbol: I # 9
    coordinates: [  0.054534251500000,  0.945465748500000,  0.750000000000000 ]
    mass: 126.904470
    reduced_to: 9
  - symbol: I # 10
    coordinates: [  0.945465748500000,  0.054534251500000,  0.250000000000000 ]
    mass: 126.904470
    reduced_to: 10
  - symbol: I # 11
    coordinates: [  0.431621469400000,  0.568378530600000,  0.750000000000000 ]
    mass: 126.904470
    reduced_to: 11
  - symbol: I # 12
    coordinates: [  0.568378530600000,  0.431621469400000,  0.250000000000000 ]
    mass: 126.904470
    reduced_to: 12
  - symbol: I # 13
    coordinates: [  0.750314257800000,  0.249685742200000,  0.925855209400000 ]
    mass: 126.904470
    reduced_to: 13
  - symbol: I # 14
    coordinates: [  0.750314257800000,  0.249685742200000,  0.574144790600000 ]
    mass: 126.904470
    reduced_to: 14
  - symbol: I # 15
    coordinates: [  0.249685742200000,  0.750314257800000,  0.425855209400000 ]
    mass: 126.904470
    reduced_to: 15
  - symbol: I # 16
    coordinates: [  0.249685742200000,  0.750314257800000,  0.074144790600000 ]
    mass: 126.904470
    reduced_to: 16
  - symbol: N # 17
    coordinates: [  0.367725057200000,  0.052609618900000,  0.250000000000000 ]
    mass: 14.006700
    reduced_to: 17
  - symbol: N # 18
    coordinates: [  0.052609618900000,  0.367725057200000,  0.750000000000000 ]
    mass: 14.006700
    reduced_to: 18
  - symbol: N # 19
    coordinates: [  0.632274942800000,  0.947390381100000,  0.750000000000000 ]
    mass: 14.006700
    reduced_to: 19
  - symbol: N # 20
    coordinates: [  0.947390381100000,  0.632274942800000,  0.250000000000000 ]
    mass: 14.006700
    reduced_to: 20
  - symbol: C # 21
    coordinates: [  0.528990418700000,  0.994365744600000,  0.250000000000000 ]
    mass: 12.010700
    reduced_to: 21
  - symbol: C # 22
    coordinates: [  0.994365744600000,  0.528990418700000,  0.750000000000000 ]
    mass: 12.010700
    reduced_to: 22
  - symbol: C # 23
    coordinates: [  0.471009581300000,  0.005634255400000,  0.750000000000000 ]
    mass: 12.010700
    reduced_to: 23
  - symbol: C # 24
    coordinates: [  0.005634255400000,  0.471009581300000,  0.250000000000000 ]
    mass: 12.010700
    reduced_to: 24
  - symbol: H # 25
    coordinates: [  0.658570840800000,  0.880733338200000,  0.819720108600000 ]
    mass: 1.007940
    reduced_to: 25
  - symbol: H # 26
    coordinates: [  0.658570840800000,  0.880733338200000,  0.680279891400000 ]
    mass: 1.007940
    reduced_to: 26
  - symbol: H # 27
    coordinates: [  0.880733338200000,  0.658570840800000,  0.319720108600000 ]
    mass: 1.007940
    reduced_to: 27
  - symbol: H # 28
    coordinates: [  0.880733338200000,  0.658570840800000,  0.180279891400000 ]
    mass: 1.007940
    reduced_to: 28
  - symbol: H # 29
    coordinates: [  0.341429159200000,  0.119266661800000,  0.319720108600000 ]
    mass: 1.007940
    reduced_to: 29
  - symbol: H # 30
    coordinates: [  0.119266661800000,  0.341429159200000,  0.680279891400000 ]
    mass: 1.007940
    reduced_to: 30
  - symbol: H # 31
    coordinates: [  0.341429159200000,  0.119266661800000,  0.180279891400000 ]
    mass: 1.007940
    reduced_to: 31
  - symbol: H # 32
    coordinates: [  0.119266661800000,  0.341429159200000,  0.819720108600000 ]
    mass: 1.007940
    reduced_to: 32
  - symbol: H # 33
    coordinates: [  0.550124183600000,  0.924318688600000,  0.324351918700000 ]
    mass: 1.007940
    reduced_to: 33
  - symbol: H # 34
    coordinates: [  0.550124183600000,  0.924318688600000,  0.175648081300000 ]
    mass: 1.007940
    reduced_to: 34
  - symbol: H # 35
    coordinates: [  0.924318688600000,  0.550124183600000,  0.824351918700000 ]
    mass: 1.007940
    reduced_to: 35
  - symbol: H # 36
    coordinates: [  0.924318688600000,  0.550124183600000,  0.675648081300000 ]
    mass: 1.007940
    reduced_to: 36
  - symbol: H # 37
    coordinates: [  0.449875816400000,  0.075681311400000,  0.824351918700000 ]
    mass: 1.007940
    reduced_to: 37
  - symbol: H # 38
    coordinates: [  0.075681311400000,  0.449875816400000,  0.175648081300000 ]
    mass: 1.007940
    reduced_to: 38
  - symbol: H # 39
    coordinates: [  0.449875816400000,  0.075681311400000,  0.675648081300000 ]
    mass: 1.007940
    reduced_to: 39
  - symbol: H # 40
    coordinates: [  0.075681311400000,  0.449875816400000,  0.324351918700000 ]
    mass: 1.007940
    reduced_to: 40
  - symbol: H # 41
    coordinates: [  0.602920207200000,  0.092040281700000,  0.250000000000000 ]
    mass: 1.007940
    reduced_to: 41
  - symbol: H # 42
    coordinates: [  0.092040281700000,  0.602920207200000,  0.750000000000000 ]
    mass: 1.007940
    reduced_to: 42
  - symbol: H # 43
    coordinates: [  0.397079792800000,  0.907959718300000,  0.750000000000000 ]
    mass: 1.007940
    reduced_to: 43
  - symbol: H # 44
    coordinates: [  0.907959718300000,  0.397079792800000,  0.250000000000000 ]
    mass: 1.007940
    reduced_to: 44
  - symbol: H # 45
    coordinates: [  0.037402867700000,  0.705768789000000,  0.250000000000000 ]
    mass: 1.007940
    reduced_to: 45
  - symbol: H # 46
    coordinates: [  0.705768789000000,  0.037402867700000,  0.750000000000000 ]
    mass: 1.007940
    reduced_to: 46
  - symbol: H # 47
    coordinates: [  0.962597132300000,  0.294231211000000,  0.750000000000000 ]
    mass: 1.007940
    reduced_to: 47
  - symbol: H # 48
    coordinates: [  0.294231211000000,  0.962597132300000,  0.250000000000000 ]
    mass: 1.007940
    reduced_to: 48

supercell:
  lattice:
  - [    23.970111616993126,   -22.776905388568618,     0.000000000000000 ] # a
  - [    23.970111616993126,    22.776905388568618,     0.000000000000000 ] # b
  - [     0.000000000000000,     0.000000000000000,    45.740762264698432 ] # c
  points:
  - symbol: Pb # 1
    coordinates: [  0.000000000000000,  0.000000000000000,  0.000000000000000 ]
    mass: 207.200000
    reduced_to: 1
  - symbol: Pb # 2
    coordinates: [  0.500000000000000,  0.000000000000000,  0.000000000000000 ]
    mass: 207.200000
    reduced_to: 1
  - symbol: Pb # 3
    coordinates: [  0.000000000000000,  0.500000000000000,  0.000000000000000 ]
    mass: 207.200000
    reduced_to: 1
  - symbol: Pb # 4
    coordinates: [  0.500000000000000,  0.500000000000000,  0.000000000000000 ]
    mass: 207.200000
    reduced_to: 1
  - symbol: Pb # 5
    coordinates: [  0.000000000000000,  0.000000000000000,  0.500000000000000 ]
    mass: 207.200000
    reduced_to: 1
  - symbol: Pb # 6
    coordinates: [  0.500000000000000,  0.000000000000000,  0.500000000000000 ]
    mass: 207.200000
    reduced_to: 1
  - symbol: Pb # 7
    coordinates: [  0.000000000000000,  0.500000000000000,  0.500000000000000 ]
    mass: 207.200000
    reduced_to: 1
  - symbol: Pb # 8
    coordinates: [  0.500000000000000,  0.500000000000000,  0.500000000000000 ]
    mass: 207.200000
    reduced_to: 1
  - symbol: Pb # 9
    coordinates: [  0.000000000000000,  0.000000000000000,  0.250000000000000 ]
    mass: 207.200000
    reduced_to: 9
  - symbol: Pb # 10
    coordinates: [  0.500000000000000,  0.000000000000000,  0.250000000000000 ]
    mass: 207.200000
    reduced_to: 9
  - symbol: Pb # 11
    coordinates: [  0.000000000000000,  0.500000000000000,  0.250000000000000 ]
    mass: 207.200000
    reduced_to: 9
  - symbol: Pb # 12
    coordinates: [  0.500000000000000,  0.500000000000000,  0.250000000000000 ]
    mass: 207.200000
    reduced_to: 9
  - symbol: Pb # 13
    coordinates: [  0.000000000000000,  0.000000000000000,  0.750000000000000 ]
    mass: 207.200000
    reduced_to: 9
  - symbol: Pb # 14
    coordinates: [  0.500000000000000,  0.000000000000000,  0.750000000000000 ]
    mass: 207.200000
    reduced_to: 9
  - symbol: Pb # 15
    coordinates: [  0.000000000000000,  0.500000000000000,  0.750000000000000 ]
    mass: 207.200000
    reduced_to: 9
  - symbol: Pb # 16
    coordinates: [  0.500000000000000,  0.500000000000000,  0.750000000000000 ]
    mass: 207.200000
    reduced_to: 9
  - symbol: Pb # 17
    coordinates: [  0.250000000000000,  0.250000000000000,  0.000000000000000 ]
    mass: 207.200000
    reduced_to: 17
  - symbol: Pb # 18
    coordinates: [  0.750000000000000,  0.250000000000000,  0.000000000000000 ]
    mass: 207.200000
    reduced_to: 17
  - symbol: Pb # 19
    coordinates: [  0.250000000000000,  0.750000000000000,  0.000000000000000 ]
    mass: 207.200000
    reduced_to: 17
  - symbol: Pb # 20
    coordinates: [  0.750000000000000,  0.750000000000000,  0.000000000000000 ]
    mass: 207.200000
    reduced_to: 17
  - symbol: Pb # 21
    coordinates: [  0.250000000000000,  0.250000000000000,  0.500000000000000 ]
    mass: 207.200000
    reduced_to: 17
  - symbol: Pb # 22
    coordinates: [  0.750000000000000,  0.250000000000000,  0.500000000000000 ]
    mass: 207.200000
    reduced_to: 17
  - symbol: Pb # 23
    coordinates: [  0.250000000000000,  0.750000000000000,  0.500000000000000 ]
    mass: 207.200000
    reduced_to: 17
  - symbol: Pb # 24
    coordinates: [  0.750000000000000,  0.750000000000000,  0.500000000000000 ]
    mass: 207.200000
    reduced_to: 17
  - symbol: Pb # 25
    coordinates: [  0.250000000000000,  0.250000000000000,  0.250000000000000 ]
    mass: 207.200000
    reduced_to: 25
  - symbol: Pb # 26
    coordinates: [  0.750000000000000,  0.250000000000000,  0.250000000000000 ]
    mass: 207.200000
    reduced_to: 25
  - symbol: Pb # 27
    coordinates: [  0.250000000000000,  0.750000000000000,  0.250000000000000 ]
    mass: 207.200000
    reduced_to: 25
  - symbol: Pb # 28
    coordinates: [  0.750000000000000,  0.750000000000000,  0.250000000000000 ]
    mass: 207.200000
    reduced_to: 25
  - symbol: Pb # 29
    coordinates: [  0.250000000000000,  0.250000000000000,  0.750000000000000 ]
    mass: 207.200000
    reduced_to: 25
  - symbol: Pb # 30
    coordinates: [  0.750000000000000,  0.250000000000000,  0.750000000000000 ]
    mass: 207.200000
    reduced_to: 25
  - symbol: Pb # 31
    coordinates: [  0.250000000000000,  0.750000000000000,  0.750000000000000 ]
    mass: 207.200000
    reduced_to: 25
  - symbol: Pb # 32
    coordinates: [  0.750000000000000,  0.750000000000000,  0.750000000000000 ]
    mass: 207.200000
    reduced_to: 25
  - symbol: I # 33
    coordinates: [  0.125225069400000,  0.125225069400000,  0.000000000000000 ]
    mass: 126.904470
    reduced_to: 33
  - symbol: I # 34
    coordinates: [  0.625225069400000,  0.125225069400000,  0.000000000000000 ]
    mass: 126.904470
    reduced_to: 33
  - symbol: I # 35
    coordinates: [  0.125225069400000,  0.625225069400000,  0.000000000000000 ]
    mass: 126.904470
    reduced_to: 33
  - symbol: I # 36
    coordinates: [  0.625225069400000,  0.625225069400000,  0.000000000000000 ]
    mass: 126.904470
    reduced_to: 33
  - symbol: I # 37
    coordinates: [  0.125225069400000,  0.125225069400000,  0.500000000000000 ]
    mass: 126.904470
    reduced_to: 33
  - symbol: I # 38
    coordinates: [  0.625225069400000,  0.125225069400000,  0.500000000000000 ]
    mass: 126.904470
    reduced_to: 33
  - symbol: I # 39
    coordinates: [  0.125225069400000,  0.625225069400000,  0.500000000000000 ]
    mass: 126.904470
    reduced_to: 33
  - symbol: I # 40
    coordinates: [  0.625225069400000,  0.625225069400000,  0.500000000000000 ]
    mass: 126.904470
    reduced_to: 33
  - symbol: I # 41
    coordinates: [  0.125225069400000,  0.125225069400000,  0.250000000000000 ]
    mass: 126.904470
    reduced_to: 41
  - symbol: I # 42
    coordinates: [  0.625225069400000,  0.125225069400000,  0.250000000000000 ]
    mass: 126.904470
    reduced_to: 41
  - symbol: I # 43
    coordinates: [  0.125225069400000,  0.625225069400000,  0.250000000000000 ]
    mass: 126.904470
    reduced_to: 41
  - symbol: I # 44
    coordinates: [  0.625225069400000,  0.625225069400000,  0.250000000000000 ]
    mass: 126.904470
    reduced_to: 41
  - symbol: I # 45
    coordinates: [  0.125225069400000,  0.125225069400000,  0.750000000000000 ]
    mass: 126.904470
    reduced_to: 41
  - symbol: I # 46
    coordinates: [  0.625225069400000,  0.125225069400000,  0.750000000000000 ]
    mass: 126.904470
    reduced_to: 41
  - symbol: I # 47
    coordinates: [  0.125225069400000,  0.625225069400000,  0.750000000000000 ]
    mass: 126.904470
    reduced_to: 41
  - symbol: I # 48
    coordinates: [  0.625225069400000,  0.625225069400000,  0.750000000000000 ]
    mass: 126.904470
    reduced_to: 41
  - symbol: I # 49
    coordinates: [  0.374774930600000,  0.374774930600000,  0.250000000000000 ]
    mass: 126.904470
    reduced_to: 49
  - symbol: I # 50
    coordinates: [  0.874774930600000,  0.374774930600000,  0.250000000000000 ]
    mass: 126.904470
    reduced_to: 49
  - symbol: I # 51
    coordinates: [  0.374774930600000,  0.874774930600000,  0.250000000000000 ]
    mass: 126.904470
    reduced_to: 49
  - symbol: I # 52
    coordinates: [  0.874774930600000,  0.874774930600000,  0.250000000000000 ]
    mass: 126.904470
    reduced_to: 49
  - symbol: I # 53
    coordinates: [  0.374774930600000,  0.374774930600000,  0.750000000000000 ]
    mass: 126.904470
    reduced_to: 49
  - symbol: I # 54
    coordinates: [  0.874774930600000,  0.374774930600000,  0.750000000000000 ]
    mass: 126.904470
    reduced_to: 49
  - symbol: I # 55
    coordinates: [  0.374774930600000,  0.874774930600000,  0.750000000000000 ]
    mass: 126.904470
    reduced_to: 49
  - symbol: I # 56
    coordinates: [  0.874774930600000,  0.874774930600000,  0.750000000000000 ]
    mass: 126.904470
    reduced_to: 49
  - symbol: I # 57
    coordinates: [  0.374774930600000,  0.374774930600000,  0.000000000000000 ]
    mass: 126.904470
    reduced_to: 57
  - symbol: I # 58
    coordinates: [  0.874774930600000,  0.374774930600000,  0.000000000000000 ]
    mass: 126.904470
    reduced_to: 57
  - symbol: I # 59
    coordinates: [  0.374774930600000,  0.874774930600000,  0.000000000000000 ]
    mass: 126.904470
    reduced_to: 57
  - symbol: I # 60
    coordinates: [  0.874774930600000,  0.874774930600000,  0.000000000000000 ]
    mass: 126.904470
    reduced_to: 57
  - symbol: I # 61
    coordinates: [  0.374774930600000,  0.374774930600000,  0.500000000000000 ]
    mass: 126.904470
    reduced_to: 57
  - symbol: I # 62
    coordinates: [  0.874774930600000,  0.374774930600000,  0.500000000000000 ]
    mass: 126.904470
    reduced_to: 57
  - symbol: I # 63
    coordinates: [  0.374774930600000,  0.874774930600000,  0.500000000000000 ]
    mass: 126.904470
    reduced_to: 57
  - symbol: I # 64
    coordinates: [  0.874774930600000,  0.874774930600000,  0.500000000000000 ]
    mass: 126.904470
    reduced_to: 57
  - symbol: I # 65
    coordinates: [  0.027267125750000,  0.472732874250000,  0.375000000000000 ]
    mass: 126.904470
    reduced_to: 65
  - symbol: I # 66
    coordinates: [  0.527267125750000,  0.472732874250000,  0.375000000000000 ]
    mass: 126.904470
    reduced_to: 65
  - symbol: I # 67
    coordinates: [  0.027267125750000,  0.972732874250000,  0.375000000000000 ]
    mass: 126.904470
    reduced_to: 65
  - symbol: I # 68
    coordinates: [  0.527267125750000,  0.972732874250000,  0.375000000000000 ]
    mass: 126.904470
    reduced_to: 65
  - symbol: I # 69
    coordinates: [  0.027267125750000,  0.472732874250000,  0.875000000000000 ]
    mass: 126.904470
    reduced_to: 65
  - symbol: I # 70
    coordinates: [  0.527267125750000,  0.472732874250000,  0.875000000000000 ]
    mass: 126.904470
    reduced_to: 65
  - symbol: I # 71
    coordinates: [  0.027267125750000,  0.972732874250000,  0.875000000000000 ]
    mass: 126.904470
    reduced_to: 65
  - symbol: I # 72
    coordinates: [  0.527267125750000,  0.972732874250000,  0.875000000000000 ]
    mass: 126.904470
    reduced_to: 65
  - symbol: I # 73
    coordinates: [  0.472732874250000,  0.027267125750000,  0.125000000000000 ]
    mass: 126.904470
    reduced_to: 73
  - symbol: I # 74
    coordinates: [  0.972732874250000,  0.027267125750000,  0.125000000000000 ]
    mass: 126.904470
    reduced_to: 73
  - symbol: I # 75
    coordinates: [  0.472732874250000,  0.527267125750000,  0.125000000000000 ]
    mass: 126.904470
    reduced_to: 73
  - symbol: I # 76
    coordinates: [  0.972732874250000,  0.527267125750000,  0.125000000000000 ]
    mass: 126.904470
    reduced_to: 73
  - symbol: I # 77
    coordinates: [  0.472732874250000,  0.027267125750000,  0.625000000000000 ]
    mass: 126.904470
    reduced_to: 73
  - symbol: I # 78
    coordinates: [  0.972732874250000,  0.027267125750000,  0.625000000000000 ]
    mass: 126.904470
    reduced_to: 73
  - symbol: I # 79
    coordinates: [  0.472732874250000,  0.527267125750000,  0.625000000000000 ]
    mass: 126.904470
    reduced_to: 73
  - symbol: I # 80
    coordinates: [  0.972732874250000,  0.527267125750000,  0.625000000000000 ]
    mass: 126.904470
    reduced_to: 73
  - symbol: I # 81
    coordinates: [  0.215810734700000,  0.284189265300000,  0.375000000000000 ]
    mass: 126.904470
    reduced_to: 81
  - symbol: I # 82
    coordinates: [  0.715810734700000,  0.284189265300000,  0.375000000000000 ]
    mass: 126.904470
    reduced_to: 81
  - symbol: I # 83
    coordinates: [  0.215810734700000,  0.784189265300000,  0.375000000000000 ]
    mass: 126.904470
    reduced_to: 81
  - symbol: I # 84
    coordinates: [  0.715810734700000,  0.784189265300000,  0.375000000000000 ]
    mass: 126.904470
    reduced_to: 81
  - symbol: I # 85
    coordinates: [  0.215810734700000,  0.284189265300000,  0.875000000000000 ]
    mass: 126.904470
    reduced_to: 81
  - symbol: I # 86
    coordinates: [  0.715810734700000,  0.284189265300000,  0.875000000000000 ]
    mass: 126.904470
    reduced_to: 81
  - symbol: I # 87
    coordinates: [  0.215810734700000,  0.784189265300000,  0.875000000000000 ]
    mass: 126.904470
    reduced_to: 81
  - symbol: I # 88
    coordinates: [  0.715810734700000,  0.784189265300000,  0.875000000000000 ]
    mass: 126.904470
    reduced_to: 81
  - symbol: I # 89
    coordinates: [  0.284189265300000,  0.215810734700000,  0.125000000000000 ]
    mass: 126.904470
    reduced_to: 89
  - symbol: I # 90
    coordinates: [  0.784189265300000,  0.215810734700000,  0.125000000000000 ]
    mass: 126.904470
    reduced_to: 89
  - symbol: I # 91
    coordinates: [  0.284189265300000,  0.715810734700000,  0.125000000000000 ]
    mass: 126.904470
    reduced_to: 89
  - symbol: I # 92
    coordinates: [  0.784189265300000,  0.715810734700000,  0.125000000000000 ]
    mass: 126.904470
    reduced_to: 89
  - symbol: I # 93
    coordinates: [  0.284189265300000,  0.215810734700000,  0.625000000000000 ]
    mass: 126.904470
    reduced_to: 89
  - symbol: I # 94
    coordinates: [  0.784189265300000,  0.215810734700000,  0.625000000000000 ]
    mass: 126.904470
    reduced_to: 89
  - symbol: I # 95
    coordinates: [  0.284189265300000,  0.715810734700000,  0.625000000000000 ]
    mass: 126.904470
    reduced_to: 89
  - symbol: I # 96
    coordinates: [  0.784189265300000,  0.715810734700000,  0.625000000000000 ]
    mass: 126.904470
    reduced_to: 89
  - symbol: I # 97
    coordinates: [  0.375157128900000,  0.124842871100000,  0.462927604700000 ]
    mass: 126.904470
    reduced_to: 97
  - symbol: I # 98
    coordinates: [  0.875157128900000,  0.124842871100000,  0.462927604700000 ]
    mass: 126.904470
    reduced_to: 97
  - symbol: I # 99
    coordinates: [  0.375157128900000,  0.624842871100000,  0.462927604700000 ]
    mass: 126.904470
    reduced_to: 97
  - symbol: I # 100
    coordinates: [  0.875157128900000,  0.624842871100000,  0.462927604700000 ]
    mass: 126.904470
    reduced_to: 97
  - symbol: I # 101
    coordinates: [  0.375157128900000,  0.124842871100000,  0.962927604700000 ]
    mass: 126.904470
    reduced_to: 97
  - symbol: I # 102
    coordinates: [  0.875157128900000,  0.124842871100000,  0.962927604700000 ]
    mass: 126.904470
    reduced_to: 97
  - symbol: I # 103
    coordinates: [  0.375157128900000,  0.624842871100000,  0.962927604700000 ]
    mass: 126.904470
    reduced_to: 97
  - symbol: I # 104
    coordinates: [  0.875157128900000,  0.624842871100000,  0.962927604700000 ]
    mass: 126.904470
    reduced_to: 97
  - symbol: I # 105
    coordinates: [  0.375157128900000,  0.124842871100000,  0.287072395300000 ]
    mass: 126.904470
    reduced_to: 105
  - symbol: I # 106
    coordinates: [  0.875157128900000,  0.124842871100000,  0.287072395300000 ]
    mass: 126.904470
    reduced_to: 105
  - symbol: I # 107
    coordinates: [  0.375157128900000,  0.624842871100000,  0.287072395300000 ]
    mass: 126.904470
    reduced_to: 105
  - symbol: I # 108
    coordinates: [  0.875157128900000,  0.624842871100000,  0.287072395300000 ]
    mass: 126.904470
    reduced_to: 105
  - symbol: I # 109
    coordinates: [  0.375157128900000,  0.124842871100000,  0.787072395300000 ]
    mass: 126.904470
    reduced_to: 105
  - symbol: I # 110
    coordinates: [  0.875157128900000,  0.124842871100000,  0.787072395300000 ]
    mass: 126.904470
    reduced_to: 105
  - symbol: I # 111
    coordinates: [  0.375157128900000,  0.624842871100000,  0.787072395300000 ]
    mass: 126.904470
    reduced_to: 105
  - symbol: I # 112
    coordinates: [  0.875157128900000,  0.624842871100000,  0.787072395300000 ]
    mass: 126.904470
    reduced_to: 105
  - symbol: I # 113
    coordinates: [  0.124842871100000,  0.375157128900000,  0.212927604700000 ]
    mass: 126.904470
    reduced_to: 113
  - symbol: I # 114
    coordinates: [  0.624842871100000,  0.375157128900000,  0.212927604700000 ]
    mass: 126.904470
    reduced_to: 113
  - symbol: I # 115
    coordinates: [  0.124842871100000,  0.875157128900000,  0.212927604700000 ]
    mass: 126.904470
    reduced_to: 113
  - symbol: I # 116