
     Program PWSCF v.7.3 starts on  8Sep2024 at 22:53:44 

     This program is part of the open-source Quantum ESPRESSO suite
     for quantum simulation of materials; please cite
         "P. Giannozzi et al., J. Phys.:Condens. Matter 21 395502 (2009);
         "P. Giannozzi et al., J. Phys.:Condens. Matter 29 465901 (2017);
         "P. Giannozzi et al., J. Chem. Phys. 152 154105 (2020);
          URL http://www.quantum-espresso.org", 
     in publications or presentations arising from this work. More details at
     http://www.quantum-espresso.org/quote

     Parallel version (MPI & OpenMP), running on      32 processor cores
     Number of MPI processes:                32
     Threads/MPI process:                     1

     MPI processes distributed on     1 nodes
     73529 MiB available memory on the printing compute node when the environment starts

     Reading input from relax.in

     Current dimensions of program PWSCF are:
     Max number of different atomic species (ntypx) = 10
     Max number of k-points (npk) =  40000
     Max angular momentum in pseudopotentials (lmaxx) =  4
read_pp_mesh; mismatch in mesh size, discarding the one in header
read_pp_mesh; mismatch in mesh size, discarding the one in header
read_pp_mesh; mismatch in mesh size, discarding the one in header
read_pp_mesh; mismatch in mesh size, discarding the one in header
read_pp_mesh; mismatch in mesh size, discarding the one in header

     IMPORTANT: XC functional enforced from input :
     Exchange-correlation= PBESOL
                           (   1   4  10   8   0   0   0)
     Any further DFT definition will be discarded
     Please, verify this is what you really want

     Message from routine setup:
     using ibrav=0 with symmetry is DISCOURAGED, use correct ibrav instead

     R & G space division:  proc/nbgrp/npool/nimage =      32
     Subspace diagonalization in iterative solution of the eigenvalue problem:
     a serial algorithm will be used


     Parallelization info
     --------------------
     sticks:   dense  smooth     PW     G-vecs:    dense   smooth      PW
     Min         187     187     48                15050    15050    1986
     Max         189     189     49                15053    15053    1993
     Sum        5999    5999   1559               481631   481631   63663

     Using Slab Decomposition



     bravais-lattice index     =            0
     lattice parameter (alat)  =      24.4362  a.u.
     unit-cell volume          =    6625.3723 (a.u.)^3
     number of atoms/cell      =           48
     number of atomic types    =            5
     number of electrons       =       160.00
     number of Kohn-Sham states=           80
     kinetic-energy cutoff     =      66.1488  Ry
     charge density cutoff     =     264.5951  Ry
     scf convergence threshold =      3.5E-12
     mixing beta               =       0.3000
     number of iterations used =            8  plain     mixing
     energy convergence thresh.=      3.5E-12
     force convergence thresh. =      3.9E-07
     press convergence thresh. =      1.0E-04
     Exchange-correlation= PBESOL
                           (   1   4  10   8   0   0   0)
     nstep                     =          999


     celldm(1)=  24.436237  celldm(2)=   0.000000  celldm(3)=   0.000000
     celldm(4)=   0.000000  celldm(5)=   0.000000  celldm(6)=   0.000000

     crystal axes: (cart. coord. in units of alat)
               a(1) = (   0.500000  -0.476557   0.000000 )  
               a(2) = (   0.500000   0.476557   0.000000 )  
               a(3) = (   0.000000   0.000000   0.952781 )  

     reciprocal axes: (cart. coord. in units 2 pi/alat)
               b(1) = (  1.000000 -1.049193  0.000000 )  
               b(2) = (  1.000000  1.049193 -0.000000 )  
               b(3) = ( -0.000000  0.000000  1.049560 )  


     PseudoPot. # 1 for I  read from file:
     ./pseudodojo-pbesol-paw-stringent/I.upf
     MD5 check sum: 63b9a6f6b26e9d91ac7e485a3eb828d2
     Pseudo is Projector augmented-wave + core cor, Zval =  7.0
     Generated using ATOMPAW code
     Shape of augmentation charge: SINC**2
     Using radial grid of 2342 points,  4 beta functions with: 
                l(1) =   0
                l(2) =   0
                l(3) =   1
                l(4) =   1
     Q(r) pseudized with 0 coefficients 


     PseudoPot. # 2 for H  read from file:
     ./pseudodojo-pbesol-paw-stringent/H.upf
     MD5 check sum: bedd486ddd85203f0df23484a7afb2f3
     Pseudo is Projector augmented-wave + core cor, Zval =  1.0
     Generated using ATOMPAW code
     Shape of augmentation charge: SINC**2
     Using radial grid of 2342 points,  3 beta functions with: 
                l(1) =   0
                l(2) =   0
                l(3) =   1
     Q(r) pseudized with 0 coefficients 


     PseudoPot. # 3 for N  read from file:
     ./pseudodojo-pbesol-paw-stringent/N.upf
     MD5 check sum: 0c79e79a35be3be12d87f87de1f1210d
     Pseudo is Projector augmented-wave + core cor, Zval =  5.0
     Generated using ATOMPAW code
     Shape of augmentation charge: SINC**2
     Using radial grid of 2342 points,  4 beta functions with: 
                l(1) =   0
                l(2) =   0
                l(3) =   1
                l(4) =   1
     Q(r) pseudized with 0 coefficients 


     PseudoPot. # 4 for Pb read from file:
     ./pseudodojo-pbesol-paw-stringent/Pb.upf
     MD5 check sum: 0b3fb30391dedbb5120feb9db46ff49f
     Pseudo is Projector augmented-wave + core cor, Zval =  4.0
     Generated using ATOMPAW code
     Shape of augmentation charge: SINC**2
     Using radial grid of 2342 points,  5 beta functions with: 
                l(1) =   0
                l(2) =   0
                l(3) =   1
                l(4) =   1
                l(5) =   2
     Q(r) pseudized with 0 coefficients 


     PseudoPot. # 5 for C  read from file:
     ./pseudodojo-pbesol-paw-stringent/C.upf
     MD5 check sum: 102891cc568ba86ce728f871f84ea899
     Pseudo is Projector augmented-wave + core cor, Zval =  4.0
     Generated using ATOMPAW code
     Shape of augmentation charge: SINC**2
     Using radial grid of 2342 points,  4 beta functions with: 
                l(1) =   0
                l(2) =   0
                l(3) =   1
                l(4) =   1
     Q(r) pseudized with 0 coefficients 


     atomic species   valence    mass     pseudopotential
     I                 7.00   126.90400     I ( 1.00)
     H                 1.00     1.00750     H ( 1.00)
     N                 5.00    14.00650     N ( 1.00)
     Pb                4.00   207.20000     Pb( 1.00)
     C                 4.00    12.01060     C ( 1.00)

      8 Sym. Ops., with inversion, found ( 4 have fractional translation)



   Cartesian axes

     site n.     atom                  positions (alat units)
         1        Pb     tau(   1) = (   0.0000000   0.0000000   0.0000000  )
         2        Pb     tau(   2) = (   0.0000000   0.0000000   0.4763903  )
         3        Pb     tau(   3) = (   0.5000000   0.0000000   0.0000000  )
         4        Pb     tau(   4) = (   0.5000000   0.0000000   0.4763903  )
         5        I      tau(   5) = (   0.2502800   0.0000000   0.0000000  )
         6        I      tau(   6) = (   0.2502800   0.0000000   0.4763903  )
         7        I      tau(   7) = (   0.7497200  -0.0000000   0.4763903  )
         8        I      tau(   8) = (   0.7497200  -0.0000000   0.0000000  )
         9        I      tau(   9) = (   0.5000000   0.4254697   0.7145854  )
        10        I      tau(  10) = (   0.5000000  -0.4254697   0.2381951  )
        11        I      tau(  11) = (   0.5000000   0.0613614   0.7145854  )
        12        I      tau(  12) = (   0.5000000  -0.0613614   0.2381951  )
        13        I      tau(  13) = (   0.5000000  -0.2390217   0.8854761  )
        14        I      tau(  14) = (   0.5000000  -0.2390217   0.5436947  )
        15        I      tau(  15) = (   0.5000000   0.2390217   0.4090858  )
        16        I      tau(  16) = (   0.5000000   0.2390217   0.0673044  )
        17        N      tau(  17) = (   0.2091400  -0.1488000   0.2381951  )
        18        N      tau(  18) = (   0.2091400   0.1488000   0.7145854  )
        19        N      tau(  19) = (   0.7908600   0.1488000   0.7145854  )
        20        N      tau(  20) = (   0.7908600  -0.1488000   0.2381951  )
        21        C      tau(  21) = (   0.7618200   0.2249061   0.2381951  )
        22        C      tau(  22) = (   0.7618200  -0.2249061   0.7145854  )
        23        C      tau(  23) = (   0.2381800  -0.2249061   0.7145854  )
        24        C      tau(  24) = (   0.2381800   0.2249061   0.2381951  )
        25        H      tau(  25) = (   0.7715700   0.1056240   0.7795650  )
        26        H      tau(  26) = (   0.7715700   0.1056240   0.6496057  )
        27        H      tau(  27) = (   0.7715700  -0.1056240   0.3031748  )
        28        H      tau(  28) = (   0.7715700  -0.1056240   0.1732155  )
        29        H      tau(  29) = (   0.2284300  -0.1056240   0.3031748  )
        30        H      tau(  30) = (   0.2284300   0.1056240   0.6496057  )
        31        H      tau(  31) = (   0.2284300  -0.1056240   0.1732155  )
        32        H      tau(  32) = (   0.2284300   0.1056240   0.7795650  )
        33        H      tau(  33) = (   0.7382500   0.1826832   0.3075671  )
        34        H      tau(  34) = (   0.7382500   0.1826832   0.1688232  )
        35        H      tau(  35) = (   0.7382500  -0.1826832   0.7839573  )
        36        H      tau(  36) = (   0.7382500  -0.1826832   0.6452134  )
        37        H      tau(  37) = (   0.2617500  -0.1826832   0.7839573  )
        38        H      tau(  38) = (   0.2617500   0.1826832   0.1688232  )
        39        H      tau(  39) = (   0.2617500  -0.1826832   0.6452134  )
        40        H      tau(  40) = (   0.2617500   0.1826832   0.3075671  )
        41        H      tau(  41) = (   0.3453200  -0.2389740   0.2381951  )
        42        H      tau(  42) = (   0.3453200   0.2389740   0.7145854  )
        43        H      tau(  43) = (   0.6546800   0.2389740   0.7145854  )
        44        H      tau(  44) = (   0.6546800  -0.2389740   0.2381951  )
        45        H      tau(  45) = (   0.3704400   0.3188735   0.2381951  )
        46        H      tau(  46) = (   0.3704400  -0.3188735   0.7145854  )
        47        H      tau(  47) = (   0.6295600  -0.3188735   0.7145854  )
        48        H      tau(  48) = (   0.6295600   0.3188735   0.2381951  )

     --------------------------------------------
     DFT-D3 Dispersion Correction (3-body terms):
     --------------------------------------------
       Reference C6 values for interpolation: 

         atom   Coordination number   C6
         H          0.912             6.05
         H          0.000            15.18
         C          0.000            98.23
         C          0.987            86.49
         C          1.998            58.72
         C          2.999            51.56
         C          3.984            36.41
         N          0.000            50.54
         N          0.994            44.25
         N          2.014            39.35
         N          2.990            31.16
         I          0.000           703.93
         I          0.997           717.00
         Pb         0.000          1477.63
         Pb         0.938          1266.00
         Pb         1.936          1088.91
         Pb         2.908          1048.37
         Pb         3.910           910.57

       Values used:

         atom   Coordination number  R0_AB[au]  C6      C8
         Pb         4.939            4.041    910.57 144158.21
         Pb         4.939            4.041    910.57 144158.21
         Pb         4.868            4.041    910.57 144158.29
         Pb         4.868            4.041    910.57 144158.29
         I          1.983            3.532    717.00  65856.00
         I          1.983            3.532    717.00  65856.00
         I          1.983            3.532    717.00  65856.00
         I          1.983            3.532    717.00  65856.00
         I          2.075            3.532    717.00  65856.00
         I          2.075            3.532    717.00  65856.00
         I          1.977            3.532    717.00  65856.00
         I          1.977            3.532    717.00  65856.00
         I          1.991            3.532    717.00  65856.00
         I          1.991            3.532    717.00  65856.00
         I          1.991            3.532    717.00  65856.00
         I          1.991            3.532    717.00  65856.00
         N          4.073            2.478     31.16    687.49
         N          4.073            2.478     31.16    687.49
         N          4.073            2.478     31.16    687.49
         N          4.073            2.478     31.16    687.49
         C          4.040            2.750     36.59   1058.18
         C          4.040            2.750     36.59   1058.18
         C          4.040            2.750     36.59   1058.18
         C          4.040            2.750     36.59   1058.18
         H          1.070            2.062      6.13     74.11
         H          1.070            2.062      6.13     74.11
         H          1.070            2.062      6.13     74.11
         H          1.070            2.062      6.13     74.11
         H          1.070            2.062      6.13     74.11
         H          1.070            2.062      6.13     74.11
         H          1.070            2.062      6.13     74.11
         H          1.070            2.062      6.13     74.11
         H          1.010            2.062      6.17     74.61
         H          1.010            2.062      6.17     74.61
         H          1.010            2.062      6.17     74.61
         H          1.010            2.062      6.17     74.61
         H          1.010            2.062      6.17     74.61
         H          1.010            2.062      6.17     74.61
         H          1.010            2.062      6.17     74.61
         H          1.010            2.062      6.17     74.61
         H          1.020            2.062      6.16     74.51
         H          1.020            2.062      6.16     74.51
         H          1.020            2.062      6.16     74.51
         H          1.020            2.062      6.16     74.51
         H          1.043            2.062      6.15     74.31
         H          1.043            2.062      6.15     74.31
         H          1.043            2.062      6.15     74.31
         H          1.043            2.062      6.15     74.31

         Molecular C6 ( Ry / a.u.^6 ) =    299084.56


     number of k points=     2
                       cart. coord. in units 2pi/alat
        k(    1) = (   0.5000000   0.0000000   0.2623899), wk =   1.0000000
        k(    2) = (   0.0000000  -0.5245967   0.2623899), wk =   1.0000000

     Dense  grid:   481631 G-vectors     FFT dimensions: (  90,  90, 128)

     Estimated max dynamical RAM per process >      76.66 MB

     Estimated total dynamical RAM >       2.40 GB

     Check: negative core charge=   -0.000009

     Initial potential from superposition of free atoms

     starting charge     159.9907, renormalised to     160.0000

     negative rho (up, down):  8.866E-02 0.000E+00
     Starting wfcs are  332 randomized atomic wfcs
     Checking if some PAW data can be deallocated... 

     total cpu time spent up to now is        4.3 secs

     Self-consistent Calculation

     iteration #  1     ecut=    66.15 Ry     beta= 0.30
     PPCG style diagonalization
     ethr =  1.00E-02,  avg # of iterations =  5.0

     negative rho (up, down):  8.636E-02 0.000E+00

     total cpu time spent up to now is        6.7 secs

     total energy              =   -7751.49051013 Ry
     estimated scf accuracy    <       2.85262708 Ry

     iteration #  2     ecut=    66.15 Ry     beta= 0.30
     PPCG style diagonalization
     ethr =  1.78E-03,  avg # of iterations =  6.0

     negative rho (up, down):  8.325E-02 0.000E+00

     total cpu time spent up to now is        9.1 secs

     total energy              =   -7751.54830628 Ry
     estimated scf accuracy    <       0.55892804 Ry

     iteration #  3     ecut=    66.15 Ry     beta= 0.30
     PPCG style diagonalization
     ethr =  3.49E-04,  avg # of iterations =  6.0

     negative rho (up, down):  8.001E-02 0.000E+00

     total cpu time spent up to now is       11.4 secs

     total energy              =   -7751.56938831 Ry
     estimated scf accuracy    <       0.10039091 Ry

     iteration #  4     ecut=    66.15 Ry     beta= 0.30
     PPCG style diagonalization
     ethr =  6.27E-05,  avg # of iterations =  6.0

     negative rho (up, down):  7.912E-02 0.000E+00

     total cpu time spent up to now is       13.8 secs

     total energy              =   -7751.57431931 Ry
     estimated scf accuracy    <       0.00543808 Ry

     iteration #  5     ecut=    66.15 Ry     beta= 0.30
     PPCG style diagonalization
     ethr =  3.40E-06,  avg # of iterations =  6.0

     negative rho (up, down):  7.881E-02 0.000E+00

     total cpu time spent up to now is       16.2 secs

     total energy              =   -7751.57452103 Ry
     estimated scf accuracy    <       0.00065363 Ry

     iteration #  6     ecut=    66.15 Ry     beta= 0.30
     PPCG style diagonalization
     ethr =  4.09E-07,  avg # of iterations =  6.5

     negative rho (up, down):  7.864E-02 0.000E+00

     total cpu time spent up to now is       18.7 secs

     total energy              =   -7751.57457989 Ry
     estimated scf accuracy    <       0.00010049 Ry

     iteration #  7     ecut=    66.15 Ry     beta= 0.30
     PPCG style diagonalization
     ethr =  6.28E-08,  avg # of iterations =  6.0

     negative rho (up, down):  7.857E-02 0.000E+00

     total cpu time spent up to now is       21.1 secs

     total energy              =   -7751.57459574 Ry
     estimated scf accuracy    <       0.00001017 Ry

     iteration #  8     ecut=    66.15 Ry     beta= 0.30
     PPCG style diagonalization
     ethr =  6.35E-09,  avg # of iterations =  6.0

     negative rho (up, down):  7.852E-02 0.000E+00

     total cpu time spent up to now is       23.4 secs

     total energy              =   -7751.57459730 Ry
     estimated scf accuracy    <       0.00000159 Ry

     iteration #  9     ecut=    66.15 Ry     beta= 0.30
     PPCG style diagonalization
     ethr =  9.95E-10,  avg # of iterations =  6.0

     negative rho (up, down):  7.851E-02 0.000E+00

     total cpu time spent up to now is       25.8 secs

     total energy              =   -7751.57459754 Ry
     estimated scf accuracy    <       0.00000011 Ry

     iteration # 10     ecut=    66.15 Ry     beta= 0.30
     PPCG style diagonalization
     ethr =  6.93E-11,  avg # of iterations =  7.0

     negative rho (up, down):  7.850E-02 0.000E+00

     total cpu time spent up to now is       28.5 secs

     total energy              =   -7751.57459756 Ry
     estimated scf accuracy    <       0.00000002 Ry

     iteration # 11     ecut=    66.15 Ry     beta= 0.30
     PPCG style diagonalization
     ethr =  1.06E-11,  avg # of iterations =  6.0

     negative rho (up, down):  7.850E-02 0.000E+00

     total cpu time spent up to now is       30.9 secs

     total energy              =   -7751.57459756 Ry
     estimated scf accuracy    <          2.8E-09 Ry

     iteration # 12     ecut=    66.15 Ry     beta= 0.30
     PPCG style diagonalization
     ethr =  1.77E-12,  avg # of iterations =  7.0

     negative rho (up, down):  7.850E-02 0.000E+00

     total cpu time spent up to now is       33.5 secs

     total energy              =   -7751.57459757 Ry
     estimated scf accuracy    <          1.4E-10 Ry

     iteration # 13     ecut=    66.15 Ry     beta= 0.30
     PPCG style diagonalization
     ethr =  1.00E-13,  avg # of iterations =  6.0

     negative rho (up, down):  7.850E-02 0.000E+00

     total cpu time spent up to now is       35.9 secs

     total energy              =   -7751.57459757 Ry
     estimated scf accuracy    <          3.8E-11 Ry

     iteration # 14     ecut=    66.15 Ry     beta= 0.30
     PPCG style diagonalization
     ethr =  1.00E-13,  avg # of iterations =  6.0

     negative rho (up, down):  7.850E-02 0.000E+00

     total cpu time spent up to now is       38.2 secs

     End of self-consistent calculation

          k = 0.5000 0.0000 0.2624 ( 60181 PWs)   bands (ev):

   -17.9009 -17.9003 -17.8983 -17.8980 -10.9493 -10.9205 -10.8874 -10.8858
   -10.3450 -10.2514 -10.1600 -10.1457  -9.9805  -9.9616  -9.8526  -9.8304
    -9.8132  -9.8031  -9.7437  -9.6813  -7.4374  -7.4243  -7.3823  -7.3753
    -7.3482  -7.3468  -7.3381  -7.3284  -6.3989  -6.0183  -5.9349  -5.5927
    -5.3298  -5.2907  -5.2892  -5.2735  -3.2458  -3.2052  -3.1924  -3.1863
    -3.1786  -3.1738  -3.1672  -3.1487  -1.4983  -1.4779  -1.2861  -1.1585
    -0.9110  -0.8546  -0.8200  -0.7262  -0.4897  -0.4215  -0.3163  -0.2374
    -0.1567  -0.0897   0.0292   0.0677   0.1528   0.1951   0.3389   0.4159
     0.4299   0.4642   0.5333   0.5578   0.6196   0.6321   0.6662   0.6831
     0.7310   0.7736   0.7882   0.7949   0.9363   0.9453   1.0524   1.1960

          k = 0.0000-0.5246 0.2624 ( 60242 PWs)   bands (ev):

   -17.9008 -17.9003 -17.8984 -17.8980 -10.9345 -10.9139 -10.9055 -10.8925
   -10.3344 -10.2642 -10.1148 -10.1055 -10.0665 -10.0008  -9.8628  -9.8405
    -9.7747  -9.7625  -9.7442  -9.6935  -7.4379  -7.4238  -7.3904  -7.3683
    -7.3547  -7.3444  -7.3335  -7.3312  -6.3883  -6.0130  -5.9419  -5.5945
    -5.3160  -5.3018  -5.2966  -5.2694  -3.2220  -3.2165  -3.2117  -3.1855
    -3.1827  -3.1658  -3.1568  -3.1533  -1.6167  -1.5281  -1.4102  -1.2201
    -0.9341  -0.8245  -0.6784  -0.6065  -0.4942  -0.3642  -0.2170  -0.2155
    -0.1427  -0.0008   0.0140   0.1439   0.2264   0.2943   0.3450   0.4050
     0.4424   0.4797   0.4836   0.5354   0.5438   0.5977   0.6057   0.6384
     0.7034   0.7126   0.7594   0.8600   0.9183   0.9958   1.0619   1.2142

     highest occupied level (ev):     1.2142

!    total energy              =   -7751.57459757 Ry
     total all-electron energy =     -7751.574598 Ry
     estimated scf accuracy    <          3.4E-12 Ry

     The total energy is the sum of the following terms:
     one-electron contribution =    -136.75882510 Ry
     hartree contribution      =     129.33386711 Ry
     xc contribution           =    -174.12660201 Ry
     ewald contribution        =    -310.80487496 Ry
     DFT-D3 Dispersion         =      -0.36906479 Ry
     one-center paw contrib.   =   -7258.84909782 Ry

     convergence has been achieved in  14 iterations

     negative rho (up, down):  7.850E-02 0.000E+00

     Forces acting on atoms (cartesian axes, Ry/au):

     atom    1 type  4   force =     0.00000000    0.00000000    0.00000000
     atom    2 type  4   force =     0.00000000    0.00000000    0.00000000
     atom    3 type  4   force =    -0.00000000    0.00000000    0.00000000
     atom    4 type  4   force =    -0.00000000    0.00000000    0.00000000
     atom    5 type  1   force =    -0.00016276   -0.00000000   -0.00000000
     atom    6 type  1   force =    -0.00016276   -0.00000000    0.00000000
     atom    7 type  1   force =     0.00016276   -0.00000000    0.00000000
     atom    8 type  1   force =     0.00016276   -0.00000000    0.00000000
     atom    9 type  1   force =     0.00000000    0.00215576    0.00000000
     atom   10 type  1   force =     0.00000000   -0.00215576    0.00000000
     atom   11 type  1   force =     0.00000000   -0.00107693    0.00000000
     atom   12 type  1   force =    -0.00000000    0.00107693    0.00000000
     atom   13 type  1   force =     0.00000000   -0.00059563   -0.00002321
     atom   14 type  1   force =    -0.00000000   -0.00059563    0.00002321
     atom   15 type  1   force =     0.00000000    0.00059563   -0.00002321
     atom   16 type  1   force =     0.00000000    0.00059563    0.00002321
     atom   17 type  3   force =     0.01017980   -0.01813463    0.00000000
     atom   18 type  3   force =     0.01017980    0.01813463    0.00000000
     atom   19 type  3   force =    -0.01017980    0.01813463    0.00000000
     atom   20 type  3   force =    -0.01017980   -0.01813463    0.00000000
     atom   21 type  5   force =    -0.01021360    0.01859092   -0.00000000
     atom   22 type  5   force =    -0.01021360   -0.01859092    0.00000000
     atom   23 type  5   force =     0.01021360   -0.01859092    0.00000000
     atom   24 type  5   force =     0.01021360    0.01859092    0.00000000
     atom   25 type  2   force =    -0.00164537   -0.00341900    0.00563005
     atom   26 type  2   force =    -0.00164537   -0.00341900   -0.00563005
     atom   27 type  2   force =    -0.00164537    0.00341900    0.00563005
     atom   28 type  2   force =    -0.00164537    0.00341900   -0.00563005
     atom   29 type  2   force =     0.00164537    0.00341900    0.00563005
     atom   30 type  2   force =     0.00164537   -0.00341900   -0.00563005
     atom   31 type  2   force =     0.00164537    0.00341900   -0.00563005
     atom   32 type  2   force =     0.00164537   -0.00341900    0.00563005
     atom   33 type  2   force =    -0.00187784   -0.00322887    0.00532160
     atom   34 type  2   force =    -0.00187784   -0.00322887   -0.00532160
     atom   35 type  2   force =    -0.00187784    0.00322887    0.00532160
     atom   36 type  2   force =    -0.00187784    0.00322887   -0.00532160
     atom   37 type  2   force =     0.00187784    0.00322887    0.00532160
     atom   38 type  2   force =     0.00187784   -0.00322887   -0.00532160
     atom   39 type  2   force =     0.00187784    0.00322887   -0.00532160
     atom   40 type  2   force =     0.00187784   -0.00322887    0.00532160
     atom   41 type  2   force =     0.00724148    0.00108573    0.00000000
     atom   42 type  2   force =     0.00724148   -0.00108573    0.00000000
     atom   43 type  2   force =    -0.00724148   -0.00108573    0.00000000
     atom   44 type  2   force =    -0.00724148    0.00108573    0.00000000
     atom   45 type  2   force =     0.00750593   -0.00126295    0.00000000
     atom   46 type  2   force =     0.00750593    0.00126295    0.00000000
     atom   47 type  2   force =    -0.00750593    0.00126295    0.00000000
     atom   48 type  2   force =    -0.00750593   -0.00126295    0.00000000

     Total force =     0.068527     Total SCF correction =     0.000001


     Computing stress (Cartesian axis) and pressure


     negative rho (up, down):  7.850E-02 0.000E+00
          total   stress  (Ry/bohr**3)                   (kbar)     P=       -9.82
  -0.00005949  -0.00000000   0.00000000           -8.75       -0.00        0.00
  -0.00000000  -0.00008510   0.00000000           -0.00      -12.52        0.00
   0.00000000   0.00000000  -0.00005564            0.00        0.00       -8.19


     BFGS Geometry Optimization
     Energy error            =      0.0E+00 Ry
     Gradient error          =      1.9E-02 Ry/Bohr
     Cell gradient error     =      1.3E+01 kbar

     number of scf cycles    =   1
     number of bfgs steps    =   0

     enthalpy           new  =   -7751.5745930612 Ry

     new trust radius        =       0.0346331086 bohr
     new conv_thr            =            3.5E-12 Ry

     new unit-cell volume =   6592.26122 a.u.^3 (   976.87233 Ang^3 )
     density =      4.21546 g/cm^3

CELL_PARAMETERS (alat= 24.43623749)
   0.499256361  -0.475542676   0.000000000
   0.499256361   0.475542676   0.000000000
   0.000000000   0.000000000   0.951455095

ATOMIC_POSITIONS (crystal)
Pb               0.0000000000        0.0000000000        0.0000000000
Pb               0.0000000000        0.0000000000        0.5000000000
Pb               0.5000000000        0.5000000000        0.0000000000
Pb               0.5000000000        0.5000000000        0.5000000000
I                0.2502733394        0.2502733394       -0.0000000000
I                0.2502733394        0.2502733394        0.5000000000
I                0.7497266606        0.7497266606        0.5000000000
I                0.7497266606        0.7497266606        0.0000000000
I                0.0535074404        0.9464925596        0.7500000000
I                0.9464925596        0.0535074404        0.2500000000
I                0.4356662391        0.5643337609        0.7500000000
I                0.5643337609        0.4356662391        0.2500000000
I                0.7508055739        0.2491944261        0.9293590030
I                0.7508055739        0.2491944261        0.5706409970
I                0.2491944261        0.7508055739        0.4293590030
I                0.2491944261        0.7508055739        0.0706409970
N                0.3664552142        0.0526579582        0.2500000000
N                0.0526579582        0.3664552142        0.7500000000
N                0.6335447858        0.9473420418        0.7500000000
N                0.9473420418        0.6335447858        0.2500000000
C                0.5246338114        0.9981702495        0.2500000000
C                0.9981702495        0.5246338114        0.7500000000
C                0.4753661886        0.0018297505        0.7500000000
C                0.0018297505        0.4753661886        0.2500000000
H                0.6608294650        0.8821758685        0.8184418161
H                0.6608294650        0.8821758685        0.6815581839
H                0.8821758685        0.6608294650        0.3184418161
H                0.8821758685        0.6608294650        0.1815581839
H                0.3391705350        0.1178241315        0.3184418161
H                0.1178241315        0.3391705350        0.6815581839
H                0.3391705350        0.1178241315        0.1815581839
H                0.1178241315        0.3391705350        0.8184418161
H                0.5466417881        0.9297045186        0.3230385679
H                0.5466417881        0.9297045186        0.1769614321
H                0.9297045186        0.5466417881        0.8230385679
H                0.9297045186        0.5466417881        0.6769614321
H                0.4533582119        0.0702954814        0.8230385679
H                0.0702954814        0.4533582119        0.1769614321
H                0.4533582119        0.0702954814        0.6769614321
H                0.0702954814        0.4533582119        0.3230385679
H                0.5962997251        0.0949329587        0.2500000000
H                0.0949329587        0.5962997251        0.7500000000
H                0.4037002749        0.9050670413        0.7500000000
H                0.9050670413        0.4037002749        0.2500000000
H                0.0362413899        0.7052529380        0.2500000000
H                0.7052529380        0.0362413899        0.7500000000
H                0.9637586101        0.2947470620        0.7500000000
H                0.2947470620        0.9637586101        0.2500000000



     Writing config-only to output data dir ./tmp/MAPbI3.save/ :
     XML data file
     NEW-OLD atomic charge density approx. for the potential

     Check: negative core charge=   -0.000009

     negative rho (up, down):  7.840E-02 0.000E+00

     total cpu time spent up to now is       43.6 secs

     Self-consistent Calculation

     iteration #  1     ecut=    66.15 Ry     beta= 0.30
     PPCG style diagonalization
     ethr =  1.00E-06,  avg # of iterations =  8.0

     negative rho (up, down):  7.830E-02 0.000E+00

     total cpu time spent up to now is       46.9 secs

     total energy              =   -7751.57835321 Ry
     estimated scf accuracy    <       0.00094786 Ry

     iteration #  2     ecut=    66.15 Ry     beta= 0.30
     PPCG style diagonalization
     ethr =  5.92E-07,  avg # of iterations =  5.7

     negative rho (up, down):  7.823E-02 0.000E+00

     total cpu time spent up to now is       49.2 secs

     total energy              =   -7751.57831319 Ry
     estimated scf accuracy    <       0.00026830 Ry

     iteration #  3     ecut=    66.15 Ry     beta= 0.30
     PPCG style diagonalization
     ethr =  1.68E-07,  avg # of iterations =  6.0

     negative rho (up, down):  7.829E-02 0.000E+00

     total cpu time spent up to now is       51.5 secs

     total energy              =   -7751.57833993 Ry
     estimated scf accuracy    <       0.00002834 Ry

     iteration #  4     ecut=    66.15 Ry     beta= 0.30
     PPCG style diagonalization
     ethr =  1.77E-08,  avg # of iterations =  6.0

     negative rho (up, down):  7.833E-02 0.000E+00

     total cpu time spent up to now is       53.9 secs

     total energy              =   -7751.57834223 Ry
     estimated scf accuracy    <       0.00000310 Ry

     iteration #  5     ecut=    66.15 Ry     beta= 0.30
     PPCG style diagonalization
     ethr =  1.94E-09,  avg # of iterations =  5.9

     negative rho (up, down):  7.838E-02 0.000E+00

     total cpu time spent up to now is       56.2 secs

     total energy              =   -7751.57834245 Ry
     estimated scf accuracy    <       0.00000060 Ry

     iteration #  6     ecut=    66.15 Ry     beta= 0.30
     PPCG style diagonalization
     ethr =  3.74E-10,  avg # of iterations =  6.0

     negative rho (up, down):  7.840E-02 0.000E+00

     total cpu time spent up to now is       58.6 secs

     total energy              =   -7751.57834250 Ry
     estimated scf accuracy    <       0.00000003 Ry

     iteration #  7     ecut=    66.15 Ry     beta= 0.30
     PPCG style diagonalization
     ethr =  1.92E-11,  avg # of iterations =  6.0

     negative rho (up, down):  7.842E-02 0.000E+00

     total cpu time spent up to now is       60.9 secs

     total energy              =   -7751.57834250 Ry
     estimated scf accuracy    <          7.1E-09 Ry

     iteration #  8     ecut=    66.15 Ry     beta= 0.30
     PPCG style diagonalization
     ethr =  4.46E-12,  avg # of iterations =  6.0

     negative rho (up, down):  7.842E-02 0.000E+00

     total cpu time spent up to now is       63.3 secs

     total energy              =   -7751.57834250 Ry
     estimated scf accuracy    <          2.6E-10 Ry

     iteration #  9     ecut=    66.15 Ry     beta= 0.30
     PPCG style diagonalization
     ethr =  1.62E-13,  avg # of iterations =  6.5

     negative rho (up, down):  7.843E-02 0.000E+00

     total cpu time spent up to now is       65.8 secs

     total energy              =   -7751.57834250 Ry
     estimated scf accuracy    <          5.0E-11 Ry

     iteration # 10     ecut=    66.15 Ry     beta= 0.30
     PPCG style diagonalization
     ethr =  1.00E-13,  avg # of iterations =  6.0

     negative rho (up, down):  7.843E-02 0.000E+00

     total cpu time spent up to now is       68.2 secs

     total energy              =   -7751.57834250 Ry
     estimated scf accuracy    <          4.0E-12 Ry

     iteration # 11     ecut=    66.15 Ry     beta= 0.30
     PPCG style diagonalization
     ethr =  1.00E-13,  avg # of iterations =  2.1

     negative rho (up, down):  7.843E-02 0.000E+00

     total cpu time spent up to now is       69.4 secs

     End of self-consistent calculation

          k = 0.5007 0.0000 0.2628 ( 60181 PWs)   bands (ev):

   -17.9278 -17.9273 -17.9253 -17.9250 -10.9030 -10.8704 -10.8360 -10.8336
   -10.3253 -10.2321 -10.1343 -10.1237  -9.9547  -9.9372  -9.8282  -9.8035
    -9.7874  -9.7788  -9.7164  -9.6527  -7.3918  -7.3781  -7.3319  -7.3244
    -7.2971  -7.2947  -7.2846  -7.2792  -6.3711  -5.9856  -5.8989  -5.5652
    -5.4029  -5.3657  -5.3611  -5.3363  -3.1263  -3.0737  -3.0683  -3.0537
    -3.0448  -3.0388  -3.0387  -3.0196  -1.4811  -1.4578  -1.2663  -1.1346
    -0.8881  -0.8328  -0.7967  -0.7028  -0.4677  -0.3998  -0.2929  -0.2131
    -0.1360  -0.0663   0.0507   0.0963   0.1826   0.2273   0.3669   0.4474
     0.4605   0.4939   0.5634   0.5897   0.6505   0.6624   0.6971   0.7163
     0.7647   0.8042   0.8229   0.8258   0.9778   0.9822   1.0888   1.2420

          k = 0.0000-0.5257 0.2628 ( 60242 PWs)   bands (ev):

   -17.9277 -17.9273 -17.9254 -17.9250 -10.8875 -10.8635 -10.8555 -10.8406
   -10.3120 -10.2443 -10.0921 -10.0838 -10.0426  -9.9752  -9.8379  -9.8150
    -9.7487  -9.7365  -9.7161  -9.6649  -7.3921  -7.3778  -7.3392  -7.3178
    -7.3015  -7.2960  -7.2830  -7.2779  -6.3591  -5.9790  -5.9075  -5.5674
    -5.3906  -5.3763  -5.3696  -5.3311  -3.0957  -3.0903  -3.0873  -3.0551
    -3.0537  -3.0380  -3.0219  -3.0172  -1.5997  -1.5108  -1.3879  -1.1982
    -0.9130  -0.7991  -0.6545  -0.5822  -0.4746  -0.3403  -0.1923  -0.1904
    -0.1217   0.0255   0.0406   0.1700   0.2535   0.3223   0.3759   0.4355
     0.4737   0.5096   0.5138   0.5673   0.5727   0.6319   0.6363   0.6706
     0.7353   0.7455   0.7900   0.8934   0.9534   1.0335   1.1013   1.2577

     highest occupied level (ev):     1.2577

!    total energy              =   -7751.57834250 Ry
     total all-electron energy =     -7751.578343 Ry
     estimated scf accuracy    <          7.7E-13 Ry

     The total energy is the sum of the following terms:
     one-electron contribution =    -136.30077658 Ry
     hartree contribution      =     129.31509741 Ry
     xc contribution           =    -174.14509457 Ry
     ewald contribution        =    -311.22406531 Ry
     DFT-D3 Dispersion         =      -0.37094939 Ry
     one-center paw contrib.   =   -7258.85255406 Ry

     convergence has been achieved in  11 iterations

     negative rho (up, down):  7.843E-02 0.000E+00

     Forces acting on atoms (cartesian axes, Ry/au):

     atom    1 type  4   force =     0.00000000    0.00000000    0.00000000
     atom    2 type  4   force =    -0.00000000   -0.00000000    0.00000000
     atom    3 type  4   force =    -0.00000000    0.00000000    0.00000000
     atom    4 type  4   force =     0.00000000    0.00000000    0.00000000
     atom    5 type  1   force =    -0.00017059   -0.00000000   -0.00000000
     atom    6 type  1   force =    -0.00017059   -0.00000000    0.00000000
     atom    7 type  1   force =     0.00017059    0.00000000   -0.00000000
     atom    8 type  1   force =     0.00017059    0.00000000    0.00000000
     atom    9 type  1   force =    -0.00000000    0.00203653    0.00000000
     atom   10 type  1   force =     0.00000000   -0.00203653   -0.00000000
     atom   11 type  1   force =    -0.00000000   -0.00094606    0.00000000
     atom   12 type  1   force =    -0.00000000    0.00094606    0.00000000
     atom   13 type  1   force =    -0.00000000   -0.00048048   -0.00034829
     atom   14 type  1   force =     0.00000000   -0.00048048    0.00034829
     atom   15 type  1   force =    -0.00000000    0.00048048   -0.00034829
     atom   16 type  1   force =    -0.00000000    0.00048048    0.00034829
     atom   17 type  3   force =    -0.00664970    0.01088655    0.00000000
     atom   18 type  3   force =    -0.00664970   -0.01088655    0.00000000
     atom   19 type  3   force =     0.00664970   -0.01088655    0.00000000
     atom   20 type  3   force =     0.00664970    0.01088655    0.00000000
     atom   21 type  5   force =     0.00443298   -0.00733907   -0.00000000
     atom   22 type  5   force =     0.00443298    0.00733907    0.00000000
     atom   23 type  5   force =    -0.00443298    0.00733907    0.00000000
     atom   24 type  5   force =    -0.00443298   -0.00733907   -0.00000000
     atom   25 type  2   force =    -0.00061958    0.00090146    0.00035688
     atom   26 type  2   force =    -0.00061958    0.00090146   -0.00035688
     atom   27 type  2   force =    -0.00061958   -0.00090146    0.00035688
     atom   28 type  2   force =    -0.00061958   -0.00090146   -0.00035688
     atom   29 type  2   force =     0.00061958   -0.00090146    0.00035688
     atom   30 type  2   force =     0.00061958    0.00090146   -0.00035688
     atom   31 type  2   force =     0.00061958   -0.00090146   -0.00035688
     atom   32 type  2   force =     0.00061958    0.00090146    0.00035688
     atom   33 type  2   force =    -0.00051470   -0.00004781    0.00056874
     atom   34 type  2   force =    -0.00051470   -0.00004781   -0.00056874
     atom   35 type  2   force =    -0.00051470    0.00004781    0.00056874
     atom   36 type  2   force =    -0.00051470    0.00004781   -0.00056874
     atom   37 type  2   force =     0.00051470    0.00004781    0.00056874
     atom   38 type  2   force =     0.00051470   -0.00004781   -0.00056874
     atom   39 type  2   force =     0.00051470    0.00004781   -0.00056874
     atom   40 type  2   force =     0.00051470   -0.00004781    0.00056874
     atom   41 type  2   force =     0.00011657    0.00040215    0.00000000
     atom   42 type  2   force =     0.00011657   -0.00040215   -0.00000000
     atom   43 type  2   force =    -0.00011657   -0.00040215    0.00000000
     atom   44 type  2   force =    -0.00011657    0.00040215   -0.00000000
     atom   45 type  2   force =    -0.00095659   -0.00120700    0.00000000
     atom   46 type  2   force =    -0.00095659    0.00120700    0.00000000
     atom   47 type  2   force =     0.00095659    0.00120700    0.00000000
     atom   48 type  2   force =     0.00095659   -0.00120700    0.00000000

     Total force =     0.031339     Total SCF correction =     0.000001


     Computing stress (Cartesian axis) and pressure


     negative rho (up, down):  7.843E-02 0.000E+00
          total   stress  (Ry/bohr**3)                   (kbar)     P=       -9.73
  -0.00006755   0.00000000   0.00000000           -9.94        0.00        0.00
   0.00000000  -0.00005904   0.00000000            0.00       -8.68        0.00
   0.00000000   0.00000000  -0.00007179            0.00        0.00      -10.56

     Energy error            =      3.7E-03 Ry
     Gradient error          =      1.1E-02 Ry/Bohr
     Cell gradient error     =      1.1E+01 kbar

     number of scf cycles    =   2
     number of bfgs steps    =   1

     enthalpy           old  =   -7751.5745930612 Ry
     enthalpy           new  =   -7751.5783380207 Ry

     CASE: enthalpy          _new < enthalpy          _old

     new trust radius        =       0.0427794451 bohr
     new conv_thr            =            3.5E-12 Ry

     new unit-cell volume =   6541.18971 a.u.^3 (   969.30431 Ang^3 )
     density =      4.24837 g/cm^3

CELL_PARAMETERS (alat= 24.43623749)
   0.497990808  -0.474289888   0.000000000
   0.497990808   0.474289888   0.000000000
   0.000000000   0.000000000   0.948983246

ATOMIC_POSITIONS (crystal)
Pb               0.0000000000        0.0000000000        0.0000000000
Pb               0.0000000000       -0.0000000000        0.5000000000
Pb               0.5000000000        0.5000000000        0.0000000000
Pb               0.5000000000        0.5000000000        0.5000000000
I                0.2502626040        0.2502626040       -0.0000000000
I                0.2502626040        0.2502626040        0.5000000000
I                0.7497373960        0.7497373960        0.5000000000
I                0.7497373960        0.7497373960        0.0000000000
I                0.0533684476        0.9466315524        0.7500000000
I                0.9466315524        0.0533684476        0.2500000000
I                0.4357324359        0.5642675641        0.7500000000
I                0.5642675641        0.4357324359        0.2500000000
I                0.7508402438        0.2491597562        0.9293426673
I                0.7508402438        0.2491597562        0.5706573327
I                0.2491597562        0.7508402438        0.4293426673
I                0.2491597562        0.7508402438        0.0706573327
N                0.3662733069        0.0526824447        0.2500000000
N                0.0526824447        0.3662733069        0.7500000000
N                0.6337266931        0.9473175553        0.7500000000
N                0.9473175553        0.6337266931        0.2500000000
C                0.5245480614        0.9982200055        0.2500000000
C                0.9982200055        0.5245480614        0.7500000000
C                0.4754519386        0.0017799945        0.7500000000
C                0.0017799945        0.4754519386        0.2500000000
H                0.6608016156        0.8820823852        0.8185795378
H                0.6608016156        0.8820823852        0.6814204622
H                0.8820823852        0.6608016156        0.3185795378
H                0.8820823852        0.6608016156        0.1814204622
H                0.3391983844        0.1179176148        0.3185795378
H                0.1179176148        0.3391983844        0.6814204622
H                0.3391983844        0.1179176148        0.1814204622
H                0.1179176148        0.3391983844        0.8185795378
H                0.5466527109        0.9295717890        0.3231792653
H                0.5466527109        0.9295717890        0.1768207347
H                0.9295717890        0.5466527109        0.8231792653
H                0.9295717890        0.5466527109        0.6768207347
H                0.4533472891        0.0704282110        0.8231792653
H                0.0704282110        0.4533472891        0.1768207347
H                0.4533472891        0.0704282110        0.6768207347
H                0.0704282110        0.4533472891        0.3231792653
H                0.5964119806        0.0951285851        0.2500000000
H                0.0951285851        0.5964119806        0.7500000000
H                0.4035880194        0.9048714149        0.7500000000
H                0.9048714149        0.4035880194        0.2500000000
H                0.0364363471        0.7052837750        0.2500000000
H                0.7052837750        0.0364363471        0.7500000000
H                0.9635636529        0.2947162250        0.7500000000
H                0.2947162250        0.9635636529        0.2500000000



     Writing config-only to output data dir ./tmp/MAPbI3.save/ :
     XML data file
     NEW-OLD atomic charge density approx. for the potential

     Check: negative core charge=   -0.000010

     negative rho (up, down):  7.829E-02 0.000E+00

     total cpu time spent up to now is       74.2 secs

     Self-consistent Calculation

     iteration #  1     ecut=    66.15 Ry     beta= 0.30
     PPCG style diagonalization
     ethr =  1.00E-06,  avg # of iterations =  7.0

     Threshold (ethr) on eigenvalues was too large:
     Diagonalizing with lowered threshold

     PPCG style diagonalization
     ethr =  8.85E-08,  avg # of iterations =  2.7

     negative rho (up, down):  7.814E-02 0.000E+00

     total cpu time spent up to now is       78.1 secs

     total energy              =   -7751.58153010 Ry
     estimated scf accuracy    <       0.00014528 Ry

     iteration #  2     ecut=    66.15 Ry     beta= 0.30
     PPCG style diagonalization
     ethr =  9.08E-08,  avg # of iterations =  6.0

     negative rho (up, down):  7.809E-02 0.000E+00

     total cpu time spent up to now is       80.4 secs

     total energy              =   -7751.58152213 Ry
     estimated scf accuracy    <       0.00002920 Ry

     iteration #  3     ecut=    66.15 Ry     beta= 0.30
     PPCG style diagonalization
     ethr =  1.82E-08,  avg # of iterations =  7.0

     negative rho (up, down):  7.815E-02 0.000E+00

     total cpu time spent up to now is       83.1 secs

     total energy              =   -7751.58151979 Ry
     estimated scf accuracy    <       0.00000686 Ry

     iteration #  4     ecut=    66.15 Ry     beta= 0.30
     PPCG style diagonalization
     ethr =  4.29E-09,  avg # of iterations =  6.0

     negative rho (up, down):  7.823E-02 0.000E+00

     total cpu time spent up to now is       85.5 secs

     total energy              =   -7751.58151979 Ry
     estimated scf accuracy    <       0.00000089 Ry

     iteration #  5     ecut=    66.15 Ry     beta= 0.30
     PPCG style diagonalization
     ethr =  5.53E-10,  avg # of iterations =  6.0

     negative rho (up, down):  7.829E-02 0.000E+00

     total cpu time spent up to now is       87.8 secs

     total energy              =   -7751.58151988 Ry
     estimated scf accuracy    <       0.00000010 Ry

     iteration #  6     ecut=    66.15 Ry     beta= 0.30
     PPCG style diagonalization
     ethr =  6.56E-11,  avg # of iterations =  6.0

     negative rho (up, down):  7.835E-02 0.000E+00

     total cpu time spent up to now is       90.2 secs

     total energy              =   -7751.58151989 Ry
     estimated scf accuracy    <       0.00000002 Ry

     iteration #  7     ecut=    66.15 Ry     beta= 0.30
     PPCG style diagonalization
     ethr =  1.36E-11,  avg # of iterations =  6.0

     negative rho (up, down):  7.837E-02 0.000E+00

     total cpu time spent up to now is       92.5 secs

     total energy              =   -7751.58151989 Ry
     estimated scf accuracy    <          1.7E-09 Ry

     iteration #  8     ecut=    66.15 Ry     beta= 0.30
     PPCG style diagonalization
     ethr =  1.03E-12,  avg # of iterations =  7.0

     negative rho (up, down):  7.837E-02 0.000E+00

     total cpu time spent up to now is       95.2 secs

     total energy              =   -7751.58151989 Ry
     estimated scf accuracy    <          1.4E-10 Ry

     iteration #  9     ecut=    66.15 Ry     beta= 0.30
     PPCG style diagonalization
     ethr =  1.00E-13,  avg # of iterations =  7.0

     negative rho (up, down):  7.837E-02 0.000E+00

     total cpu time spent up to now is       97.8 secs

     total energy              =   -7751.58151989 Ry
     estimated scf accuracy    <          1.2E-11 Ry

     iteration # 10     ecut=    66.15 Ry     beta= 0.30
     PPCG style diagonalization
     ethr =  1.00E-13,  avg # of iterations =  4.8

     negative rho (up, down):  7.837E-02 0.000E+00

     total cpu time spent up to now is       99.8 secs

     End of self-consistent calculation

          k = 0.5020-0.0000 0.2634 ( 60181 PWs)   bands (ev):

   -17.8983 -17.8977 -17.8957 -17.8953 -10.8519 -10.8169 -10.7809 -10.7783
   -10.2909 -10.1959 -10.0935 -10.0837  -9.9115  -9.8937  -9.7855  -9.7585
    -9.7441  -9.7357  -9.6726  -9.6066  -7.3594  -7.3453  -7.3001  -7.2924
    -7.2639  -7.2637  -7.2528  -7.2445  -6.3241  -5.9296  -5.8414  -5.5036
    -5.3532  -5.3153  -5.3102  -5.2815  -3.0688  -3.0178  -3.0089  -2.9971
    -2.9879  -2.9814  -2.9780  -2.9579  -1.4501  -1.4248  -1.2332  -1.0993
    -0.8473  -0.7932  -0.7562  -0.6613  -0.4270  -0.3585  -0.2538  -0.1725
    -0.0951  -0.0237   0.0968   0.1435   0.2283   0.2757   0.4157   0.4965
     0.5115   0.5424   0.6122   0.6407   0.7027   0.7130   0.7487   0.7681
     0.8182   0.8558   0.8777   0.8779   1.0415   1.0426   1.1466   1.3155

          k = 0.0000-0.5271 0.2634 ( 60242 PWs)   bands (ev):

   -17.8982 -17.8977 -17.8958 -17.8953 -10.8359 -10.8099 -10.8014 -10.7856
   -10.2755 -10.2080 -10.0547 -10.0430  -9.9998  -9.9330  -9.7953  -9.7703
    -9.7035  -9.6912  -9.6726  -9.6197  -7.3598  -7.3448  -7.3084  -7.2852
    -7.2707  -7.2617  -7.2493  -7.2457  -6.3117  -5.9229  -5.8502  -5.5056
    -5.3409  -5.3261  -5.3189  -5.2761  -3.0393  -3.0337  -3.0285  -2.9971
    -2.9947  -2.9776  -2.9632  -2.9588  -1.5693  -1.4794  -1.3531  -1.1654
    -0.8742  -0.7596  -0.6145  -0.5412  -0.4352  -0.2980  -0.1502  -0.1487
    -0.0808   0.0687   0.0856   0.2174   0.3030   0.3689   0.4264   0.4840
     0.5248   0.5568   0.5649   0.6188   0.6204   0.6866   0.6887   0.7252
     0.7910   0.7972   0.8412   0.9475   1.0098   1.0943   1.1644   1.3299

     highest occupied level (ev):     1.3299

!    total energy              =   -7751.58151989 Ry
     total all-electron energy =     -7751.581520 Ry
     estimated scf accuracy    <          1.1E-12 Ry

     The total energy is the sum of the following terms:
     one-electron contribution =    -134.76362491 Ry
     hartree contribution      =     128.87350280 Ry
     xc contribution           =    -174.22673718 Ry
     ewald contribution        =    -312.22853323 Ry
     DFT-D3 Dispersion         =      -0.37387753 Ry
     one-center paw contrib.   =   -7258.86224984 Ry

     convergence has been achieved in  10 iterations

     negative rho (up, down):  7.837E-02 0.000E+00

     Forces acting on atoms (cartesian axes, Ry/au):

     atom    1 type  4   force =     0.00000000    0.00000000    0.00000000
     atom    2 type  4   force =     0.00000000    0.00000000    0.00000000
     atom    3 type  4   force =     0.00000000    0.00000000    0.00000000
     atom    4 type  4   force =     0.00000000    0.00000000    0.00000000
     atom    5 type  1   force =    -0.00002805    0.00000000   -0.00000000
     atom    6 type  1   force =    -0.00002805   -0.00000000    0.00000000
     atom    7 type  1   force =     0.00002805   -0.00000000   -0.00000000
     atom    8 type  1   force =     0.00002805   -0.00000000    0.00000000
     atom    9 type  1   force =    -0.00000000    0.00142305    0.00000000
     atom   10 type  1   force =     0.00000000   -0.00142305    0.00000000
     atom   11 type  1   force =    -0.00000000   -0.00065200   -0.00000000
     atom   12 type  1   force =    -0.00000000    0.00065200   -0.00000000
     atom   13 type  1   force =    -0.00000000   -0.00017510   -0.00052754
     atom   14 type  1   force =    -0.00000000   -0.00017510    0.00052754
     atom   15 type  1   force =    -0.00000000    0.00017510   -0.00052754
     atom   16 type  1   force =    -0.00000000    0.00017510    0.00052754
     atom   17 type  3   force =    -0.00532874    0.01063355    0.00000000
     atom   18 type  3   force =    -0.00532874   -0.01063355    0.00000000
     atom   19 type  3   force =     0.00532874   -0.01063355    0.00000000
     atom   20 type  3   force =     0.00532874    0.01063355    0.00000000
     atom   21 type  5   force =     0.00529629   -0.01004424    0.00000000
     atom   22 type  5   force =     0.00529629    0.01004424    0.00000000
     atom   23 type  5   force =    -0.00529629    0.01004424    0.00000000
     atom   24 type  5   force =    -0.00529629   -0.01004424    0.00000000
     atom   25 type  2   force =    -0.00063414   -0.00070884    0.00171644
     atom   26 type  2   force =    -0.00063414   -0.00070884   -0.00171644
     atom   27 type  2   force =    -0.00063414    0.00070884    0.00171644
     atom   28 type  2   force =    -0.00063414    0.00070884   -0.00171644
     atom   29 type  2   force =     0.00063414    0.00070884    0.00171644
     atom   30 type  2   force =     0.00063414   -0.00070884   -0.00171644
     atom   31 type  2   force =     0.00063414    0.00070884   -0.00171644
     atom   32 type  2   force =     0.00063414   -0.00070884    0.00171644
     atom   33 type  2   force =    -0.00054168   -0.00049155    0.00104410
     atom   34 type  2   force =    -0.00054168   -0.00049155   -0.00104410
     atom   35 type  2   force =    -0.00054168    0.00049155    0.00104410
     atom   36 type  2   force =    -0.00054168    0.00049155   -0.00104410
     atom   37 type  2   force =     0.00054168    0.00049155    0.00104410
     atom   38 type  2   force =     0.00054168   -0.00049155   -0.00104410
     atom   39 type  2   force =     0.00054168    0.00049155   -0.00104410
     atom   40 type  2   force =     0.00054168   -0.00049155    0.00104410
     atom   41 type  2   force =     0.00089865    0.00042661    0.00000000
     atom   42 type  2   force =     0.00089865   -0.00042661    0.00000000
     atom   43 type  2   force =    -0.00089865   -0.00042661    0.00000000
     atom   44 type  2   force =    -0.00089865    0.00042661    0.00000000
     atom   45 type  2   force =     0.00188299   -0.00083298   -0.00000000
     atom   46 type  2   force =     0.00188299    0.00083298    0.00000000
     atom   47 type  2   force =    -0.00188299    0.00083298    0.00000000
     atom   48 type  2   force =    -0.00188299   -0.00083298   -0.00000000

     Total force =     0.033948     Total SCF correction =     0.000001


     Computing stress (Cartesian axis) and pressure


     negative rho (up, down):  7.837E-02 0.000E+00
          total   stress  (Ry/bohr**3)                   (kbar)     P=       -7.51
  -0.00005376  -0.00000000   0.00000000           -7.91       -0.00        0.00
  -0.00000000  -0.00004184   0.00000000           -0.00       -6.15        0.00
   0.00000000   0.00000000  -0.00005747            0.00        0.00       -8.45

     Energy error            =      3.2E-03 Ry
     Gradient error          =      1.1E-02 Ry/Bohr
     Cell gradient error     =      8.5E+00 kbar

     number of scf cycles    =   3
     number of bfgs steps    =   2

     enthalpy           old  =   -7751.5783380207 Ry
     enthalpy           new  =   -7751.5815154472 Ry

     CASE: enthalpy          _new < enthalpy          _old

     new trust radius        =       0.0640889574 bohr
     new conv_thr            =            3.5E-12 Ry

     new unit-cell volume =   6465.20698 a.u.^3 (   958.04483 Ang^3 )
     density =      4.29830 g/cm^3

CELL_PARAMETERS (alat= 24.43623749)
   0.496069133  -0.472468446   0.000000000
   0.496069133   0.472468446   0.000000000
   0.000000000   0.000000000   0.945223285

ATOMIC_POSITIONS (crystal)
Pb               0.0000000000        0.0000000000        0.0000000000
Pb               0.0000000000       -0.0000000000        0.5000000000
Pb               0.5000000000        0.5000000000        0.0000000000
Pb               0.5000000000        0.5000000000        0.5000000000
I                0.2502530658        0.2502530658       -0.0000000000
I                0.2502530658        0.2502530658        0.5000000000
I                0.7497469342        0.7497469342        0.5000000000
I                0.7497469342        0.7497469342        0.0000000000
I                0.0531696830        0.9468303170        0.7500000000
I                0.9468303170        0.0531696830        0.2500000000
I                0.4358267517        0.5641732483        0.7500000000
I                0.5641732483        0.4358267517        0.2500000000
I                0.7508794772        0.2491205228        0.9293016270
I                0.7508794772        0.2491205228        0.5706983730
I                0.2491205228        0.7508794772        0.4293016270
I                0.2491205228        0.7508794772        0.0706983730
N                0.3659240256        0.0528303800        0.2500000000
N                0.0528303800        0.3659240256        0.7500000000
N                0.6340759744        0.9471696200        0.7500000000
N                0.9471696200        0.6340759744        0.2500000000
C                0.5247539192        0.9981452288        0.2500000000
C                0.9981452288        0.5247539192        0.7500000000
C                0.4752460808        0.0018547712        0.7500000000
C                0.0018547712        0.4752460808        0.2500000000
H                0.6608492227        0.8818295304        0.8188913434
H                0.6608492227        0.8818295304        0.6811086566
H                0.8818295304        0.6608492227        0.3188913434
H                0.8818295304        0.6608492227        0.1811086566
H                0.3391507773        0.1181704696        0.3188913434
H                0.1181704696        0.3391507773        0.6811086566
H                0.3391507773        0.1181704696        0.1811086566
H                0.1181704696        0.3391507773        0.8188913434
H                0.5466935619        0.9293252398        0.3234391553
H                0.5466935619        0.9293252398        0.1765608447
H                0.9293252398        0.5466935619        0.8234391553
H                0.9293252398        0.5466935619        0.6765608447
H                0.4533064381        0.0706747602        0.8234391553
H                0.0706747602        0.4533064381        0.1765608447
H                0.4533064381        0.0706747602        0.6765608447
H                0.0706747602        0.4533064381        0.3234391553
H                0.5966350028        0.0954945354        0.2500000000
H                0.0954945354        0.5966350028        0.7500000000
H                0.4033649972        0.9045054646        0.7500000000
H                0.9045054646        0.4033649972        0.2500000000
H                0.0369027509        0.7055169605        0.2500000000
H                0.7055169605        0.0369027509        0.7500000000
H                0.9630972491        0.2944830395        0.7500000000
H                0.2944830395        0.9630972491        0.2500000000



     Writing config-only to output data dir ./tmp/MAPbI3.save/ :
     XML data file
     NEW-OLD atomic charge density approx. for the potential

     Check: negative core charge=   -0.000010

     negative rho (up, down):  7.817E-02 0.000E+00

     total cpu time spent up to now is      104.7 secs

     Self-consistent Calculation

     iteration #  1     ecut=    66.15 Ry     beta= 0.30
     PPCG style diagonalization
     ethr =  1.00E-06,  avg # of iterations =  8.0

     negative rho (up, down):  7.794E-02 0.000E+00

     total cpu time spent up to now is      107.9 secs

     total energy              =   -7751.58555376 Ry
     estimated scf accuracy    <       0.00034739 Ry

     iteration #  2     ecut=    66.15 Ry     beta= 0.30
     PPCG style diagonalization
     ethr =  2.17E-07,  avg # of iterations =  6.0

     negative rho (up, down):  7.785E-02 0.000E+00

     total cpu time spent up to now is      110.3 secs

     total energy              =   -7751.58552433 Ry
     estimated scf accuracy    <       0.00008152 Ry

     iteration #  3     ecut=    66.15 Ry     beta= 0.30
     PPCG style diagonalization
     ethr =  5.09E-08,  avg # of iterations =  7.0

     negative rho (up, down):  7.796E-02 0.000E+00

     total cpu time spent up to now is      112.9 secs

     total energy              =   -7751.58552399 Ry
     estimated scf accuracy    <       0.00001581 Ry

     iteration #  4     ecut=    66.15 Ry     beta= 0.30
     PPCG style diagonalization
     ethr =  9.88E-09,  avg # of iterations =  6.0

     negative rho (up, down):  7.808E-02 0.000E+00

     total cpu time spent up to now is      115.3 secs

     total energy              =   -7751.58552436 Ry
     estimated scf accuracy    <       0.00000205 Ry

     iteration #  5     ecut=    66.15 Ry     beta= 0.30
     PPCG style diagonalization
     ethr =  1.28E-09,  avg # of iterations =  7.0

     negative rho (up, down):  7.821E-02 0.000E+00

     total cpu time spent up to now is      117.9 secs

     total energy              =   -7751.58552458 Ry
     estimated scf accuracy    <       0.00000025 Ry

     iteration #  6     ecut=    66.15 Ry     beta= 0.30
     PPCG style diagonalization
     ethr =  1.58E-10,  avg # of iterations =  7.0

     negative rho (up, down):  7.826E-02 0.000E+00

     total cpu time spent up to now is      120.6 secs

     total energy              =   -7751.58552461 Ry
     estimated scf accuracy    <       0.00000003 Ry

     iteration #  7     ecut=    66.15 Ry     beta= 0.30
     PPCG style diagonalization
     ethr =  1.74E-11,  avg # of iterations =  6.0

     negative rho (up, down):  7.829E-02 0.000E+00

     total cpu time spent up to now is      122.9 secs

     total energy              =   -7751.58552461 Ry
     estimated scf accuracy    <          4.4E-09 Ry

     iteration #  8     ecut=    66.15 Ry     beta= 0.30
     PPCG style diagonalization
     ethr =  2.75E-12,  avg # of iterations =  6.0

     negative rho (up, down):  7.830E-02 0.000E+00

     total cpu time spent up to now is      125.2 secs

     total energy              =   -7751.58552461 Ry
     estimated scf accuracy    <          2.9E-10 Ry

     iteration #  9     ecut=    66.15 Ry     beta= 0.30
     PPCG style diagonalization
     ethr =  1.80E-13,  avg # of iterations =  7.0

     negative rho (up, down):  7.830E-02 0.000E+00

     total cpu time spent up to now is      127.9 secs

     total energy              =   -7751.58552461 Ry
     estimated scf accuracy    <          2.0E-11 Ry

     iteration # 10     ecut=    66.15 Ry     beta= 0.30
     PPCG style diagonalization
     ethr =  1.00E-13,  avg # of iterations =  5.0

     negative rho (up, down):  7.830E-02 0.000E+00

     total cpu time spent up to now is      129.9 secs

     End of self-consistent calculation

          k = 0.5040-0.0000 0.2645 ( 60181 PWs)   bands (ev):

   -17.8112 -17.8106 -17.8084 -17.8080 -10.7655 -10.7260 -10.6866 -10.6838
   -10.2392 -10.1420 -10.0312 -10.0241  -9.8461  -9.8284  -9.7206  -9.6907
    -9.6790  -9.6704  -9.6063  -9.5367  -7.2875  -7.2726  -7.2239  -7.2158
    -7.1861  -7.1849  -7.1731  -7.1656  -6.2538  -5.8452  -5.7554  -5.4063
    -5.2485  -5.2089  -5.2031  -5.1732  -2.9932  -2.9398  -2.9305  -2.9185
    -2.9086  -2.9012  -2.8975  -2.8760  -1.4026  -1.3745  -1.1832  -1.0462
    -0.7853  -0.7337  -0.6955  -0.5991  -0.3656  -0.2965  -0.1941  -0.1113
    -0.0326   0.0416   0.1668   0.2147   0.2976   0.3486   0.4893   0.5702
     0.5888   0.6158   0.6858   0.7179   0.7820   0.7897   0.8268   0.8465
     0.8991   0.9337   0.9567   0.9605   1.1317   1.1403   1.2344   1.4266

          k = 0.0000-0.5291 0.2645 ( 60242 PWs)   bands (ev):

   -17.8111 -17.8106 -17.8086 -17.8080 -10.7487 -10.7185 -10.7093 -10.6915
   -10.2197 -10.1536  -9.9982  -9.9823  -9.9356  -9.8691  -9.7306  -9.7029
    -9.6350  -9.6226  -9.6066  -9.5515  -7.2879  -7.2722  -7.2324  -7.2083
    -7.1922  -7.1840  -7.1706  -7.1660  -6.2411  -5.8386  -5.7641  -5.4081
    -5.2357  -5.2200  -5.2124  -5.1671  -2.9627  -2.9565  -2.9508  -2.9177
    -2.9152  -2.8971  -2.8822  -2.8775  -1.5239  -1.4328  -1.3005  -1.1161
    -0.8151  -0.6997  -0.5537  -0.4790  -0.3755  -0.2343  -0.0863  -0.0852
    -0.0185   0.1341   0.1538   0.2892   0.3777   0.4398   0.5024   0.5576
     0.6021   0.6287   0.6424   0.6927   0.6964   0.7631   0.7742   0.8078
     0.8752   0.8754   0.9184   1.0292   1.0947   1.1867   1.2603   1.4399

     highest occupied level (ev):     1.4399

!    total energy              =   -7751.58552461 Ry
     total all-electron energy =     -7751.585525 Ry
     estimated scf accuracy    <          2.4E-12 Ry

     The total energy is the sum of the following terms:
     one-electron contribution =    -131.96849960 Ry
     hartree contribution      =     127.99008300 Ry
     xc contribution           =    -174.32624696 Ry
     ewald contribution        =    -314.02549192 Ry
     DFT-D3 Dispersion         =      -0.37831331 Ry
     one-center paw contrib.   =   -7258.87705583 Ry

     convergence has been achieved in  10 iterations

     negative rho (up, down):  7.830E-02 0.000E+00

     Forces acting on atoms (cartesian axes, Ry/au):

     atom    1 type  4   force =     0.00000000    0.00000000    0.00000000
     atom    2 type  4   force =     0.00000000   -0.00000000    0.00000000
     atom    3 type  4   force =     0.00000000    0.00000000    0.00000000
     atom    4 type  4   force =     0.00000000    0.00000000    0.00000000
     atom    5 type  1   force =     0.00018122    0.00000000    0.00000000
     atom    6 type  1   force =     0.00018122   -0.00000000   -0.00000000
     atom    7 type  1   force =    -0.00018122   -0.00000000    0.00000000
     atom    8 type  1   force =    -0.00018122    0.00000000   -0.00000000
     atom    9 type  1   force =    -0.00000000    0.00049330    0.00000000
     atom   10 type  1   force =     0.00000000   -0.00049330    0.00000000
     atom   11 type  1   force =     0.00000000   -0.00018017   -0.00000000
     atom   12 type  1   force =     0.00000000    0.00018017    0.00000000
     atom   13 type  1   force =     0.00000000    0.00026636   -0.00078709
     atom   14 type  1   force =     0.00000000    0.00026636    0.00078709
     atom   15 type  1   force =    -0.00000000   -0.00026636   -0.00078709
     atom   16 type  1   force =     0.00000000   -0.00026636    0.00078709
     atom   17 type  3   force =    -0.00489263    0.00759361   -0.00000000
     atom   18 type  3   force =    -0.00489263   -0.00759361    0.00000000
     atom   19 type  3   force =     0.00489263   -0.00759361    0.00000000
     atom   20 type  3   force =     0.00489263    0.00759361    0.00000000
     atom   21 type  5   force =     0.00488385   -0.00863211    0.00000000
     atom   22 type  5   force =     0.00488385    0.00863211   -0.00000000
     atom   23 type  5   force =    -0.00488385    0.00863211    0.00000000
     atom   24 type  5   force =    -0.00488385   -0.00863211   -0.00000000
     atom   25 type  2   force =    -0.00042603   -0.00218424    0.00244771
     atom   26 type  2   force =    -0.00042603   -0.00218424   -0.00244771
     atom   27 type  2   force =    -0.00042603    0.00218424    0.00244771
     atom   28 type  2   force =    -0.00042603    0.00218424   -0.00244771
     atom   29 type  2   force =     0.00042603    0.00218424    0.00244771
     atom   30 type  2   force =     0.00042603   -0.00218424   -0.00244771
     atom   31 type  2   force =     0.00042603    0.00218424   -0.00244771
     atom   32 type  2   force =     0.00042603   -0.00218424    0.00244771
     atom   33 type  2   force =    -0.00056220   -0.00159642    0.00201282
     atom   34 type  2   force =    -0.00056220   -0.00159642   -0.00201282
     atom   35 type  2   force =    -0.00056220    0.00159642    0.00201282
     atom   36 type  2   force =    -0.00056220    0.00159642   -0.00201282
     atom   37 type  2   force =     0.00056220    0.00159642    0.00201282
     atom   38 type  2   force =     0.00056220   -0.00159642   -0.00201282
     atom   39 type  2   force =     0.00056220    0.00159642   -0.00201282
     atom   40 type  2   force =     0.00056220   -0.00159642    0.00201282
     atom   41 type  2   force =     0.00208364   -0.00004924    0.00000000
     atom   42 type  2   force =     0.00208364    0.00004924    0.00000000
     atom   43 type  2   force =    -0.00208364    0.00004924    0.00000000
     atom   44 type  2   force =    -0.00208364   -0.00004924    0.00000000
     atom   45 type  2   force =     0.00244762    0.00015625    0.00000000
     atom   46 type  2   force =     0.00244762   -0.00015625    0.00000000
     atom   47 type  2   force =    -0.00244762   -0.00015625    0.00000000
     atom   48 type  2   force =    -0.00244762    0.00015625    0.00000000

     Total force =     0.030127     Total SCF correction =     0.000001


     Computing stress (Cartesian axis) and pressure


     negative rho (up, down):  7.830E-02 0.000E+00
          total   stress  (Ry/bohr**3)                   (kbar)     P=       -4.74
  -0.00003775   0.00000000   0.00000000           -5.55        0.00        0.00
   0.00000000  -0.00002210   0.00000000            0.00       -3.25        0.00
   0.00000000   0.00000000  -0.00003672            0.00        0.00       -5.40

     Energy error            =      4.0E-03 Ry
     Gradient error          =      8.6E-03 Ry/Bohr
     Cell gradient error     =      5.6E+00 kbar

     number of scf cycles    =   4
     number of bfgs steps    =   3

     enthalpy           old  =   -7751.5815154472 Ry
     enthalpy           new  =   -7751.5855202169 Ry

     CASE: enthalpy          _new < enthalpy          _old

     new trust radius        =       0.0959536375 bohr
     new conv_thr            =            3.5E-12 Ry

     new unit-cell volume =   6352.64295 a.u.^3 (   941.36456 Ang^3 )
     density =      4.37446 g/cm^3

CELL_PARAMETERS (alat= 24.43623749)
   0.493109196  -0.469822058   0.000000000
   0.493109196   0.469822058   0.000000000
   0.000000000   0.000000000   0.939604166

ATOMIC_POSITIONS (crystal)
Pb               0.0000000000        0.0000000000        0.0000000000
Pb               0.0000000000       -0.0000000000        0.5000000000
Pb               0.5000000000        0.5000000000        0.0000000000
Pb               0.5000000000        0.5000000000        0.5000000000
I                0.2502536324        0.2502536324       -0.0000000000
I                0.2502536324        0.2502536324        0.5000000000
I                0.7497463676        0.7497463676        0.5000000000
I                0.7497463676        0.7497463676        0.0000000000
I                0.0529045000        0.9470955000        0.7500000000
I                0.9470955000        0.0529045000        0.2500000000
I                0.4359494118        0.5640505882        0.7500000000
I                0.5640505882        0.4359494118        0.2500000000
I                0.7509088624        0.2490911376        0.9292053012
I                0.7509088624        0.2490911376        0.5707946988
I                0.2490911376        0.7509088624        0.4292053012
I                0.2490911376        0.7509088624        0.0707946988
N                0.3652844954        0.0529589358        0.2500000000
N                0.0529589358        0.3652844954        0.7500000000
N                0.6347155046        0.9470410642        0.7500000000
N                0.9470410642        0.6347155046        0.2500000000
C                0.5252523328        0.9980130652        0.2500000000
C                0.9980130652        0.5252523328        0.7500000000
C                0.4747476672        0.0019869348        0.7500000000
C                0.0019869348        0.4747476672        0.2500000000
H                0.6610528581        0.8813164964        0.8194602880
H                0.6610528581        0.8813164964        0.6805397120
H                0.8813164964        0.6610528581        0.3194602880
H                0.8813164964        0.6610528581        0.1805397120
H                0.3389471419        0.1186835036        0.3194602880
H                0.1186835036        0.3389471419        0.6805397120
H                0.3389471419        0.1186835036        0.1805397120
H                0.1186835036        0.3389471419        0.8194602880
H                0.5468444492        0.9288314613        0.3239409171
H                0.5468444492        0.9288314613        0.1760590829
H                0.9288314613        0.5468444492        0.8239409171
H                0.9288314613        0.5468444492        0.6760590829
H                0.4531555508        0.0711685387        0.8239409171
H                0.0711685387        0.4531555508        0.1760590829
H                0.4531555508        0.0711685387        0.6760590829
H                0.0711685387        0.4531555508        0.3239409171
H                0.5971174501        0.0961345600        0.2500000000
H                0.0961345600        0.5971174501        0.7500000000
H                0.4028825499        0.9038654400        0.7500000000
H                0.9038654400        0.4028825499        0.2500000000
H                0.0376199651        0.7059989091        0.2500000000
H                0.7059989091        0.0376199651        0.7500000000
H                0.9623800349        0.2940010909        0.7500000000
H                0.2940010909        0.9623800349        0.2500000000



     Writing config-only to output data dir ./tmp/MAPbI3.save/ :
     XML data file
     NEW-OLD atomic charge density approx. for the potential

     Check: negative core charge=   -0.000011

     negative rho (up, down):  7.799E-02 0.000E+00

     total cpu time spent up to now is      134.8 secs

     Self-consistent Calculation

     iteration #  1     ecut=    66.15 Ry     beta= 0.30
     PPCG style diagonalization
     ethr =  1.00E-06,  avg # of iterations =  8.1

     negative rho (up, down):  7.766E-02 0.000E+00

     total cpu time spent up to now is      138.1 secs

     total energy              =   -7751.58940206 Ry
     estimated scf accuracy    <       0.00099704 Ry

     iteration #  2     ecut=    66.15 Ry     beta= 0.30
     PPCG style diagonalization
     ethr =  6.23E-07,  avg # of iterations =  6.0

     negative rho (up, down):  7.752E-02 0.000E+00

     total cpu time spent up to now is      140.5 secs

     total energy              =   -7751.58933436 Ry
     estimated scf accuracy    <       0.00023182 Ry

     iteration #  3     ecut=    66.15 Ry     beta= 0.30
     PPCG style diagonalization
     ethr =  1.45E-07,  avg # of iterations =  7.0

     negative rho (up, down):  7.769E-02 0.000E+00

     total cpu time spent up to now is      143.1 secs

     total energy              =   -7751.58933830 Ry
     estimated scf accuracy    <       0.00004199 Ry

     iteration #  4     ecut=    66.15 Ry     beta= 0.30
     PPCG style diagonalization
     ethr =  2.62E-08,  avg # of iterations =  6.0

     negative rho (up, down):  7.787E-02 0.000E+00

     total cpu time spent up to now is      145.4 secs

     total energy              =   -7751.58934015 Ry
     estimated scf accuracy    <       0.00000511 Ry

     iteration #  5     ecut=    66.15 Ry     beta= 0.30
     PPCG style diagonalization
     ethr =  3.19E-09,  avg # of iterations =  6.5

     negative rho (up, down):  7.806E-02 0.000E+00

     total cpu time spent up to now is      147.9 secs

     total energy              =   -7751.58934063 Ry
     estimated scf accuracy    <       0.00000067 Ry

     iteration #  6     ecut=    66.15 Ry     beta= 0.30
     PPCG style diagonalization
     ethr =  4.16E-10,  avg # of iterations =  7.0

     negative rho (up, down):  7.815E-02 0.000E+00

     total cpu time spent up to now is      150.6 secs

     total energy              =   -7751.58934071 Ry
     estimated scf accuracy    <       0.00000008 Ry

     iteration #  7     ecut=    66.15 Ry     beta= 0.30
     PPCG style diagonalization
     ethr =  4.81E-11,  avg # of iterations =  6.0

     negative rho (up, down):  7.819E-02 0.000E+00

     total cpu time spent up to now is      152.9 secs

     total energy              =   -7751.58934072 Ry
     estimated scf accuracy    <          9.0E-09 Ry

     iteration #  8     ecut=    66.15 Ry     beta= 0.30
     PPCG style diagonalization
     ethr =  5.64E-12,  avg # of iterations =  6.0

     negative rho (up, down):  7.820E-02 0.000E+00

     total cpu time spent up to now is      155.3 secs

     total energy              =   -7751.58934072 Ry
     estimated scf accuracy    <          7.0E-10 Ry

     iteration #  9     ecut=    66.15 Ry     beta= 0.30
     PPCG style diagonalization
     ethr =  4.40E-13,  avg # of iterations =  7.0

     negative rho (up, down):  7.820E-02 0.000E+00

     total cpu time spent up to now is      158.0 secs

     total energy              =   -7751.58934072 Ry
     estimated scf accuracy    <          5.3E-11 Ry

     iteration # 10     ecut=    66.15 Ry     beta= 0.30
     PPCG style diagonalization
     ethr =  1.00E-13,  avg # of iterations =  6.0

     negative rho (up, down):  7.820E-02 0.000E+00

     total cpu time spent up to now is      160.3 secs

     total energy              =   -7751.58934072 Ry
     estimated scf accuracy    <          6.1E-12 Ry

     iteration # 11     ecut=    66.15 Ry     beta= 0.30
     PPCG style diagonalization
     ethr =  1.00E-13,  avg # of iterations =  3.5

     negative rho (up, down):  7.820E-02 0.000E+00

     total cpu time spent up to now is      161.9 secs

     End of self-consistent calculation

          k = 0.5070-0.0000 0.2661 ( 60181 PWs)   bands (ev):

   -17.6505 -17.6498 -17.6473 -17.6469 -10.6248 -10.5759 -10.5300 -10.5265
   -10.1605 -10.0613  -9.9358  -9.9353  -9.7466  -9.7303  -9.6205  -9.5875
    -9.5794  -9.5695  -9.5042  -9.4291  -7.1496  -7.1340  -7.0894  -7.0811
    -7.0517  -7.0448  -7.0381  -7.0207  -6.1480  -5.7178  -5.6262  -5.2576
    -5.0724  -5.0296  -5.0230  -4.9934  -2.8724  -2.8235  -2.8050  -2.8004
    -2.7893  -2.7809  -2.7679  -2.7440  -1.3283  -1.2962  -1.1057  -0.9646
    -0.6907  -0.6434  -0.6041  -0.5058  -0.2723  -0.2029  -0.1017  -0.0183
[...]
         Pb         1.936          1088.91
         Pb         2.908          1048.37
         Pb         3.910           910.57

       Values used:

         atom   Coordination number  R0_AB[au]  C6      C8
         Pb         5.195            4.041    910.57 144158.13
         Pb         5.195            4.041    910.57 144158.13
         Pb         5.143            4.041    910.57 144158.13
         Pb         5.143            4.041    910.57 144158.13
         I          2.204            3.532    717.00  65856.00
         I          2.204            3.532    717.00  65856.00
         I          2.204            3.532    717.00  65856.00
         I          2.204            3.532    717.00  65856.00
         I          2.250            3.532    717.00  65856.01
         I          2.250            3.532    717.00  65856.01
         I          2.124            3.532    717.00  65856.00
         I          2.124            3.532    717.00  65856.00
         I          2.193            3.532    717.00  65856.00
         I          2.193            3.532    717.00  65856.00
         I          2.193            3.532    717.00  65856.00
         I          2.193            3.532    717.00  65856.00
         N          4.095            2.478     31.16    687.49
         N          4.095            2.478     31.16    687.49
         N          4.095            2.478     31.16    687.49
         N          4.095            2.478     31.16    687.49
         C          4.055            2.750     36.57   1057.62
         C          4.055            2.750     36.57   1057.62
         C          4.055            2.750     36.57   1057.62
         C          4.055            2.750     36.57   1057.62
         H          1.093            2.062      6.12     73.96
         H          1.093            2.062      6.12     73.96
         H          1.093            2.062      6.12     73.96
         H          1.093            2.062      6.12     73.96
         H          1.093            2.062      6.12     73.96
         H          1.093            2.062      6.12     73.96
         H          1.093            2.062      6.12     73.96
         H          1.093            2.062      6.12     73.96
         H          1.014            2.062      6.17     74.57
         H          1.014            2.062      6.17     74.57
         H          1.014            2.062      6.17     74.57
         H          1.014            2.062      6.17     74.57
         H          1.014            2.062      6.17     74.57
         H          1.014            2.062      6.17     74.57
         H          1.014            2.062      6.17     74.57
         H          1.014            2.062      6.17     74.57
         H          1.028            2.062      6.16     74.43
         H          1.028            2.062      6.16     74.43
         H          1.028            2.062      6.16     74.43
         H          1.028            2.062      6.16     74.43
         H          1.059            2.062      6.14     74.18
         H          1.059            2.062      6.14     74.18
         H          1.059            2.062      6.14     74.18
         H          1.059            2.062      6.14     74.18

         Molecular C6 ( Ry / a.u.^6 ) =    299033.83


     number of k points=     2
                       cart. coord. in units 2pi/alat
        k(    1) = (   0.5097231  -0.0000000   0.2671166), wk =   1.0000000
        k(    2) = (  -0.0000000  -0.5364258   0.2671166), wk =   1.0000000

     Dense  grid:   453591 G-vectors     FFT dimensions: (  90,  90, 120)

     Estimated max dynamical RAM per process >      73.45 MB

     Estimated total dynamical RAM >       2.30 GB

     Check: negative core charge=   -0.000009

     Initial potential from superposition of free atoms

     starting charge     159.9907, renormalised to     160.0000

     negative rho (up, down):  8.788E-02 0.000E+00
     Starting wfcs are  332 randomized atomic wfcs
     Checking if some PAW data can be deallocated... 

     total cpu time spent up to now is     2882.8 secs

     Self-consistent Calculation

     iteration #  1     ecut=    66.15 Ry     beta= 0.30
     PPCG style diagonalization
     ethr =  1.00E-06,  avg # of iterations = 13.0

     negative rho (up, down):  8.575E-02 0.000E+00

     total cpu time spent up to now is     2887.3 secs

     total energy              =   -7751.52607828 Ry
     estimated scf accuracy    <       2.81753659 Ry

     iteration #  2     ecut=    66.15 Ry     beta= 0.30
     PPCG style diagonalization
     ethr =  1.76E-03,  avg # of iterations =  5.8

     negative rho (up, down):  8.264E-02 0.000E+00

     total cpu time spent up to now is     2889.5 secs

     total energy              =   -7751.56890198 Ry
     estimated scf accuracy    <       0.54605881 Ry

     iteration #  3     ecut=    66.15 Ry     beta= 0.30
     PPCG style diagonalization
     ethr =  3.41E-04,  avg # of iterations =  6.0

     negative rho (up, down):  7.957E-02 0.000E+00

     total cpu time spent up to now is     2891.8 secs

     total energy              =   -7751.58470803 Ry
     estimated scf accuracy    <       0.09909805 Ry

     iteration #  4     ecut=    66.15 Ry     beta= 0.30
     PPCG style diagonalization
     ethr =  6.19E-05,  avg # of iterations =  6.0

     negative rho (up, down):  7.869E-02 0.000E+00

     total cpu time spent up to now is     2894.0 secs

     total energy              =   -7751.58922326 Ry
     estimated scf accuracy    <       0.00553161 Ry

     iteration #  5     ecut=    66.15 Ry     beta= 0.30
     PPCG style diagonalization
     ethr =  3.46E-06,  avg # of iterations =  6.0

     negative rho (up, down):  7.845E-02 0.000E+00

     total cpu time spent up to now is     2896.2 secs

     total energy              =   -7751.58937032 Ry
     estimated scf accuracy    <       0.00058945 Ry

     iteration #  6     ecut=    66.15 Ry     beta= 0.30
     PPCG style diagonalization
     ethr =  3.68E-07,  avg # of iterations =  6.5

     negative rho (up, down):  7.830E-02 0.000E+00

     total cpu time spent up to now is     2898.6 secs

     total energy              =   -7751.58942022 Ry
     estimated scf accuracy    <       0.00008772 Ry

     iteration #  7     ecut=    66.15 Ry     beta= 0.30
     PPCG style diagonalization
     ethr =  5.48E-08,  avg # of iterations =  6.5

     negative rho (up, down):  7.823E-02 0.000E+00

     total cpu time spent up to now is     2901.0 secs

     total energy              =   -7751.58943236 Ry
     estimated scf accuracy    <       0.00001077 Ry

     iteration #  8     ecut=    66.15 Ry     beta= 0.30
     PPCG style diagonalization
     ethr =  6.73E-09,  avg # of iterations =  6.0

     negative rho (up, down):  7.818E-02 0.000E+00

     total cpu time spent up to now is     2903.3 secs

     total energy              =   -7751.58943407 Ry
     estimated scf accuracy    <       0.00000193 Ry

     iteration #  9     ecut=    66.15 Ry     beta= 0.30
     PPCG style diagonalization
     ethr =  1.21E-09,  avg # of iterations =  6.0

     negative rho (up, down):  7.816E-02 0.000E+00

     total cpu time spent up to now is     2905.5 secs

     total energy              =   -7751.58943434 Ry
     estimated scf accuracy    <       0.00000012 Ry

     iteration # 10     ecut=    66.15 Ry     beta= 0.30
     PPCG style diagonalization
     ethr =  7.40E-11,  avg # of iterations =  7.0

     negative rho (up, down):  7.815E-02 0.000E+00

     total cpu time spent up to now is     2908.1 secs

     total energy              =   -7751.58943436 Ry
     estimated scf accuracy    <       0.00000001 Ry

     iteration # 11     ecut=    66.15 Ry     beta= 0.30
     PPCG style diagonalization
     ethr =  8.80E-12,  avg # of iterations =  6.0

     negative rho (up, down):  7.815E-02 0.000E+00

     total cpu time spent up to now is     2910.3 secs

     total energy              =   -7751.58943437 Ry
     estimated scf accuracy    <          3.3E-09 Ry

     iteration # 12     ecut=    66.15 Ry     beta= 0.30
     PPCG style diagonalization
     ethr =  2.04E-12,  avg # of iterations =  7.0

     negative rho (up, down):  7.815E-02 0.000E+00

     total cpu time spent up to now is     2912.8 secs

     total energy              =   -7751.58943437 Ry
     estimated scf accuracy    <          1.3E-10 Ry

     iteration # 13     ecut=    66.15 Ry     beta= 0.30
     PPCG style diagonalization
     ethr =  1.00E-13,  avg # of iterations =  6.0

     negative rho (up, down):  7.815E-02 0.000E+00

     total cpu time spent up to now is     2915.1 secs

     total energy              =   -7751.58943437 Ry
     estimated scf accuracy    <          3.6E-11 Ry

     iteration # 14     ecut=    66.15 Ry     beta= 0.30
     PPCG style diagonalization
     ethr =  1.00E-13,  avg # of iterations =  5.5

     negative rho (up, down):  7.815E-02 0.000E+00

     total cpu time spent up to now is     2917.2 secs

     total energy              =   -7751.58943437 Ry
     estimated scf accuracy    <          3.4E-12 Ry

     iteration # 15     ecut=    66.15 Ry     beta= 0.30
     PPCG style diagonalization
     ethr =  1.00E-13,  avg # of iterations =  3.5

     negative rho (up, down):  7.815E-02 0.000E+00

     total cpu time spent up to now is     2918.7 secs

     total energy              =   -7751.58943437 Ry
     estimated scf accuracy    <          2.6E-13 Ry

     iteration # 16     ecut=    66.15 Ry     beta= 0.30
     PPCG style diagonalization
     ethr =  1.00E-13,  avg # of iterations =  2.1

     negative rho (up, down):  7.815E-02 0.000E+00

     total cpu time spent up to now is     2919.9 secs

     total energy              =   -7751.58943437 Ry
     estimated scf accuracy    <          3.6E-14 Ry

     iteration # 17     ecut=    66.15 Ry     beta= 0.30
     PPCG style diagonalization
     ethr =  1.00E-13,  avg # of iterations =  2.0

     negative rho (up, down):  7.815E-02 0.000E+00

     total cpu time spent up to now is     2921.1 secs

     total energy              =   -7751.58943437 Ry
     estimated scf accuracy    <          2.8E-15 Ry

     iteration # 18     ecut=    66.15 Ry     beta= 0.30
     PPCG style diagonalization
     ethr =  1.00E-13,  avg # of iterations =  2.0

     negative rho (up, down):  7.815E-02 0.000E+00

     total cpu time spent up to now is     2922.3 secs

     total energy              =   -7751.58943437 Ry
     estimated scf accuracy    <          1.1E-15 Ry

     iteration # 19     ecut=    66.15 Ry     beta= 0.30
     PPCG style diagonalization
     ethr =  1.00E-13,  avg # of iterations =  2.0

     negative rho (up, down):  7.815E-02 0.000E+00

     total cpu time spent up to now is     2923.4 secs

     End of self-consistent calculation

          k = 0.5097-0.0000 0.2671 ( 56726 PWs)   bands (ev):

   -17.4274 -17.4266 -17.4238 -17.4234 -10.4830 -10.4225 -10.3645 -10.3619
   -10.0716  -9.9720  -9.8379  -9.8217  -9.6437  -9.6290  -9.5188  -9.4750
    -9.4628  -9.4603  -9.3837  -9.3116  -6.9500  -6.9322  -6.8826  -6.8735
    -6.8440  -6.8397  -6.8272  -6.8125  -6.0286  -5.5951  -5.4890  -5.1245
    -4.9148  -4.8636  -4.8587  -4.8273  -2.7476  -2.6878  -2.6713  -2.6654
    -2.6512  -2.6397  -2.6273  -2.6016  -1.2339  -1.2000  -0.9910  -0.8397
    -0.5835  -0.5442  -0.5028  -0.4053  -0.1850  -0.0972  -0.0072   0.0742
     0.1649   0.2368   0.3803   0.4294   0.5147   0.5788   0.7216   0.8016
     0.8236   0.8390   0.9116   0.9661   1.0297   1.0303   1.0679   1.0984
     1.1516   1.1761   1.1999   1.2369   1.4168   1.4369   1.5024   1.7509

          k =-0.0000-0.5364 0.2671 ( 56686 PWs)   bands (ev):

   -17.4273 -17.4266 -17.4240 -17.4234 -10.4628 -10.4129 -10.3995 -10.3730
   -10.0291  -9.9801  -9.8127  -9.7962  -9.7372  -9.6672  -9.5204  -9.4913
    -9.4223  -9.4077  -9.3822  -9.3236  -6.9507  -6.9316  -6.8959  -6.8629
    -6.8530  -6.8349  -6.8218  -6.8177  -6.0198  -5.5936  -5.4902  -5.1187
    -4.8984  -4.8794  -4.8683  -4.8179  -2.7154  -2.7060  -2.6946  -2.6570
    -2.6539  -2.6289  -2.6172  -2.6107  -1.3767  -1.2879  -1.1127  -0.9208
    -0.6255  -0.5177  -0.3538  -0.2813  -0.1852  -0.0357   0.1180   0.1183
     0.1811   0.3486   0.3694   0.5057   0.6120   0.6648   0.7346   0.7883
     0.8345   0.8641   0.8873   0.9201   0.9326   1.0029   1.0326   1.0639
     1.1188   1.1379   1.1544   1.2766   1.3650   1.4854   1.5735   1.7815

     highest occupied level (ev):     1.7815

!    total energy              =   -7751.58943437 Ry
     total all-electron energy =     -7751.589434 Ry
     estimated scf accuracy    <          2.1E-16 Ry

     The total energy is the sum of the following terms:
     one-electron contribution =    -121.46706347 Ry
     hartree contribution      =     124.37234871 Ry
     xc contribution           =    -174.49238270 Ry
     ewald contribution        =    -320.69518742 Ry
     DFT-D3 Dispersion         =      -0.39198240 Ry
     one-center paw contrib.   =   -7258.91516708 Ry

     convergence has been achieved in  19 iterations

     negative rho (up, down):  7.815E-02 0.000E+00

     Forces acting on atoms (cartesian axes, Ry/au):

     atom    1 type  4   force =     0.00000000    0.00000000    0.00000000
     atom    2 type  4   force =     0.00000000    0.00000000    0.00000000
     atom    3 type  4   force =     0.00000000    0.00000000    0.00000000
     atom    4 type  4   force =     0.00000000    0.00000000    0.00000000
     atom    5 type  1   force =     0.00000066    0.00000000   -0.00000000
     atom    6 type  1   force =     0.00000066    0.00000000    0.00000000
     atom    7 type  1   force =    -0.00000066   -0.00000000   -0.00000000
     atom    8 type  1   force =    -0.00000066    0.00000000    0.00000000
     atom    9 type  1   force =     0.00000000   -0.00002367    0.00000000
     atom   10 type  1   force =    -0.00000000    0.00002367    0.00000000
     atom   11 type  1   force =     0.00000000    0.00000142    0.00000000
     atom   12 type  1   force =    -0.00000000   -0.00000142    0.00000000
     atom   13 type  1   force =    -0.00000000    0.00001577    0.00001440
     atom   14 type  1   force =     0.00000000    0.00001577   -0.00001440
     atom   15 type  1   force =    -0.00000000   -0.00001577    0.00001440
     atom   16 type  1   force =    -0.00000000   -0.00001577   -0.00001440
     atom   17 type  3   force =    -0.00003287    0.00010587    0.00000000
     atom   18 type  3   force =    -0.00003287   -0.00010587   -0.00000000
     atom   19 type  3   force =     0.00003287   -0.00010587   -0.00000000
     atom   20 type  3   force =     0.00003287    0.00010587    0.00000000
     atom   21 type  5   force =     0.00004646   -0.00012050   -0.00000000
     atom   22 type  5   force =     0.00004646    0.00012050    0.00000000
     atom   23 type  5   force =    -0.00004646    0.00012050    0.00000000
     atom   24 type  5   force =    -0.00004646   -0.00012050    0.00000000
     atom   25 type  2   force =    -0.00000994   -0.00001646    0.00001941
     atom   26 type  2   force =    -0.00000994   -0.00001646   -0.00001941
     atom   27 type  2   force =    -0.00000994    0.00001646    0.00001941
     atom   28 type  2   force =    -0.00000994    0.00001646   -0.00001941
     atom   29 type  2   force =     0.00000994    0.00001646    0.00001941
     atom   30 type  2   force =     0.00000994   -0.00001646   -0.00001941
     atom   31 type  2   force =     0.00000994    0.00001646   -0.00001941
     atom   32 type  2   force =     0.00000994   -0.00001646    0.00001941
     atom   33 type  2   force =    -0.00000232   -0.00002776    0.00002854
     atom   34 type  2   force =    -0.00000232   -0.00002776   -0.00002854
     atom   35 type  2   force =    -0.00000232    0.00002776    0.00002854
     atom   36 type  2   force =    -0.00000232    0.00002776   -0.00002854
     atom   37 type  2   force =     0.00000232    0.00002776    0.00002854
     atom   38 type  2   force =     0.00000232   -0.00002776   -0.00002854
     atom   39 type  2   force =     0.00000232    0.00002776   -0.00002854
     atom   40 type  2   force =     0.00000232   -0.00002776    0.00002854
     atom   41 type  2   force =     0.00002312   -0.00001154    0.00000000
     atom   42 type  2   force =     0.00002312    0.00001154    0.00000000
     atom   43 type  2   force =    -0.00002312    0.00001154    0.00000000
     atom   44 type  2   force =    -0.00002312   -0.00001154    0.00000000
     atom   45 type  2   force =     0.00002093   -0.00000625    0.00000000
     atom   46 type  2   force =     0.00002093    0.00000625    0.00000000
     atom   47 type  2   force =    -0.00002093    0.00000625   -0.00000000
     atom   48 type  2   force =    -0.00002093   -0.00000625    0.00000000

     Total force =     0.000377     Total SCF correction =     0.000000


     Computing stress (Cartesian axis) and pressure


     negative rho (up, down):  7.815E-02 0.000E+00
          total   stress  (Ry/bohr**3)                   (kbar)     P=        0.10
   0.00000057   0.00000000   0.00000000            0.08        0.00        0.00
   0.00000000   0.00000065   0.00000000            0.00        0.10        0.00
   0.00000000   0.00000000   0.00000072            0.00        0.00        0.11


     Writing all to output data dir ./tmp/MAPbI3.save/ :
     XML data file, charge density, pseudopotentials, collected wavefunctions

     init_run     :      4.31s CPU      4.44s WALL (       2 calls)
     electrons    :   2415.31s CPU   2446.81s WALL (      98 calls)
     update_pot   :     58.53s CPU     59.18s WALL (      96 calls)
     forces       :     55.95s CPU     57.03s WALL (      98 calls)
     force_dftd3  :     25.72s CPU     26.22s WALL (      98 calls)
     stress       :    285.20s CPU    287.87s WALL (      98 calls)
     stres_dftd3  :     25.73s CPU     26.21s WALL (      98 calls)

     Called by init_run:
     wfcinit      :      1.67s CPU      1.73s WALL (       2 calls)
     potinit      :      1.21s CPU      1.23s WALL (       2 calls)
     hinit0       :      0.87s CPU      0.89s WALL (       2 calls)

     Called by electrons:
     c_bands      :   1422.98s CPU   1441.78s WALL (    1290 calls)
     sum_band     :    189.89s CPU    193.07s WALL (    1290 calls)
     v_of_rho     :     24.75s CPU     26.81s WALL (    1296 calls)
     newd         :     67.38s CPU     68.32s WALL (    1296 calls)
     PAW_pot      :    799.29s CPU    804.42s WALL (    1392 calls)
     mix_rho      :      6.06s CPU      6.39s WALL (    1290 calls)
     energy_dftd3 :     20.47s CPU     20.56s WALL (      98 calls)

     Called by c_bands:
     init_us_2    :     26.88s CPU     27.35s WALL (    5748 calls)
     init_us_2:cp :     26.84s CPU     27.33s WALL (    5748 calls)
     ppcg_k       :   1222.68s CPU   1238.25s WALL (    2580 calls)
     wfcrot       :    182.17s CPU    184.36s WALL (    2204 calls)

     Called by ppcg_*:
     h_psi        :    733.32s CPU    742.50s WALL (   12711 calls)
     s_psi        :     87.49s CPU     88.15s WALL (   12711 calls)

     Called by h_psi:
     h_psi:calbec :     91.88s CPU     92.63s WALL (   12711 calls)
     vloc_psi     :    537.25s CPU    544.76s WALL (   12711 calls)
     add_vuspsi   :     91.85s CPU     92.61s WALL (   12711 calls)

     General routines
     calbec       :    121.19s CPU    122.21s WALL (   16463 calls)
     fft          :     11.04s CPU     13.34s WALL (   16894 calls)
     ffts         :      0.98s CPU      1.28s WALL (    1290 calls)
     fftw         :    536.28s CPU    543.78s WALL ( 2073946 calls)

     Parallel routines

     PWSCF        :  48m 8.71s CPU  48m47.56s WALL


   This run was terminated on:  23:42:31   8Sep2024            

=------------------------------------------------------------------------------=
   JOB DONE.
=------------------------------------------------------------------------------=
